 vasp.5.4.1 24Jun15 (build Jul 30 2017 02:39:41) complex                        
  
 executed on           IFC91_ompi date 2020.04.15  10:22:56
 running on    1 total cores
 distrk:  each k-point on    1 cores,    1 groups
 distr:  one band on NCORES_PER_BAND=   1 cores,    1 groups


--------------------------------------------------------------------------------------------------------


 INCAR:
 POTCAR:    PAW_PBE Bi_d 06Sep2000                
 POTCAR:    PAW_PBE Se 06Sep2000                  
 POTCAR:    PAW_PBE Bi_d 06Sep2000                
   VRHFIN =Bi:                                                                  
   LEXCH  = PE                                                                  
   EATOM  =  1959.2045 eV,  143.9975 Ry                                         
                                                                                
   TITEL  = PAW_PBE Bi_d 06Sep2000                                              
   LULTRA =        F    use ultrasoft PP ?                                      
   IUNSCR =        1    unscreen: 0-lin 1-nonlin 2-no                           
   RPACOR =    2.200    partial core radius                                     
   POMASS =  208.980; ZVAL   =   15.000    mass and valenz                      
   RCORE  =    2.500    outmost cutoff radius                                   
   RWIGS  =    3.090; RWIGS  =    1.635    wigner-seitz radius (au A)           
   ENMAX  =  242.839; ENMIN  =  182.129 eV                                      
   ICORE  =        3    local potential                                         
   LCOR   =        T    correct aug charges                                     
   LPAW   =        T    paw PP                                                  
   EAUG   =  442.899                                                            
   DEXC   =    0.000                                                            
   RMAX   =    2.551    core radius for proj-oper                               
   RAUG   =    1.300    factor for augmentation sphere                          
   RDEP   =    2.650    radius for radial grids                                 
   RDEPT  =    2.039    core radius for aug-charge                              
                                                                                
   Atomic configuration                                                         
   16 entries                                                                   
     n  l   j            E        occ.                                          
     1  0  0.50    -90639.6581   2.0000                                         
     2  0  0.50    -16282.4666   2.0000                                         
     2  1  1.50    -13922.8286   6.0000                                         
     3  0  0.50     -3930.4763   2.0000                                         
     3  1  1.50     -3256.7013   6.0000                                         
     3  2  2.50     -2581.6168  10.0000                                         
     4  0  0.50      -902.2614   2.0000                                         
     4  1  1.50      -681.5915   6.0000                                         
     4  2  2.50      -429.8249  10.0000                                         
     4  3  3.50      -152.6004  14.0000                                         
     5  0  0.50      -157.7156   2.0000                                         
     5  1  1.50       -95.8054   6.0000                                         
     5  2  2.50       -27.0806  10.0000                                         
     6  0  0.50       -14.4732   2.0000                                         
     6  1  1.50        -4.5702   3.0000                                         
     5  3  2.50        -2.7212   0.0000                                         
   Description                                                                  
     l       E           TYP  RCUT    TYP  RCUT                                 
     2    -27.0805982     23  2.500                                             
     2     -1.3605826     23  2.500                                             
     0    -14.4732271     23  2.500                                             
     0      6.8029130     23  2.500                                             
     1     -4.5701651     23  2.500                                             
     1     13.6058260     23  2.500                                             
     3     -1.3605826      7  2.500                                             
  local pseudopotential read in
  partial core-charges read in
  partial kinetic energy density read in
  atomic valenz-charges read in
  non local Contribution for L=           2  read in
    real space projection operators read in
  non local Contribution for L=           2  read in
    real space projection operators read in
  non local Contribution for L=           0  read in
    real space projection operators read in
  non local Contribution for L=           0  read in
    real space projection operators read in
  non local Contribution for L=           1  read in
    real space projection operators read in
  non local Contribution for L=           1  read in
    real space projection operators read in
    PAW grid and wavefunctions read in
 
   number of l-projection  operators is LMAX  =           6
   number of lm-projection operators is LMMAX =          18
 
 POTCAR:    PAW_PBE Se 06Sep2000                  
   VRHFIN =Se: s2p4                                                             
   LEXCH  = PE                                                                  
   EATOM  =   257.1286 eV,   18.8984 Ry                                         
                                                                                
   TITEL  = PAW_PBE Se 06Sep2000                                                
   LULTRA =        F    use ultrasoft PP ?                                      
   IUNSCR =        1    unscreen: 0-lin 1-nonlin 2-no                           
   RPACOR =    1.900    partial core radius                                     
   POMASS =   78.960; ZVAL   =    6.000    mass and valenz                      
   RCORE  =    2.100    outmost cutoff radius                                   
   RWIGS  =    2.200; RWIGS  =    1.164    wigner-seitz radius (au A)           
   ENMAX  =  211.555; ENMIN  =  158.666 eV                                      
   ICORE  =        3    local potential                                         
   LCOR   =        T    correct aug charges                                     
   LPAW   =        T    paw PP                                                  
   EAUG   =  446.842                                                            
   DEXC   =    0.000                                                            
   RMAX   =    2.147    core radius for proj-oper                               
   RAUG   =    1.300    factor for augmentation sphere                          
   RDEP   =    2.177    radius for radial grids                                 
   RDEPT  =    1.928    core radius for aug-charge                              
                                                                                
   Atomic configuration                                                         
   10 entries                                                                   
     n  l   j            E        occ.                                          
     1  0  0.50    -12503.4787   2.0000                                         
     2  0  0.50     -1606.9547   2.0000                                         
     2  1  1.50     -1413.3140   6.0000                                         
     3  0  0.50      -213.4885   2.0000                                         
     3  1  1.50      -152.9538   6.0000                                         
     3  2  2.50       -53.1221  10.0000                                         
     4  0  0.50       -17.2865   2.0000                                         
     4  1  0.50        -6.5110   4.0000                                         
     4  2  2.50        -6.8029   0.0000                                         
     4  3  2.50        -6.8029   0.0000                                         
   Description                                                                  
     l       E           TYP  RCUT    TYP  RCUT                                 
     0    -17.2865377     23  2.100                                             
     0    -15.3094411     23  2.100                                             
     1     -6.5110275     23  2.100                                             
     1     -0.0695192     23  2.100                                             
     2     -6.8029130     23  2.100                                             
     3     -1.3605826      7  2.100                                             
  local pseudopotential read in
  partial core-charges read in
  partial kinetic energy density read in
  atomic valenz-charges read in
  non local Contribution for L=           0  read in
    real space projection operators read in
  non local Contribution for L=           0  read in
    real space projection operators read in
  non local Contribution for L=           1  read in
    real space projection operators read in
  non local Contribution for L=           1  read in
    real space projection operators read in
  non local Contribution for L=           2  read in
    real space projection operators read in
    PAW grid and wavefunctions read in
 
   number of l-projection  operators is LMAX  =           5
   number of lm-projection operators is LMMAX =          13
 
  PAW_PBE Bi_d 06Sep2000                :
 energy of atom  1       EATOM=-1959.2045
 kinetic energy error for atom=    0.0515 (will be added to EATOM!!)
  PAW_PBE Se 06Sep2000                  :
 energy of atom  2       EATOM= -257.1286
 kinetic energy error for atom=    0.0040 (will be added to EATOM!!)
 
 
 POSCAR: t.cif -- Reduced via b,-a,-1/3a+1/3b+1/3
  positions in direct lattice
  velocities in cartesian coordinates
  No initial velocities read in
 exchange correlation table for  LEXCH =        8
   RHO(1)=    0.500       N(1)  =     2000
   RHO(2)=  100.500       N(2)  =     4000
 


--------------------------------------------------------------------------------------------------------


 ion  position               nearest neighbor table
   1  0.599  0.599  0.704-   5 2.84   5 2.84   5 2.84   3 3.04   3 3.04   3 3.04
   2  0.401  0.401  0.296-   4 2.84   4 2.84   4 2.84   3 3.04   3 3.04   3 3.04
   3  0.000  0.000  0.500-   1 3.04   1 3.04   1 3.04   2 3.04   2 3.04   2 3.04
   4  0.791  0.791  0.128-   2 2.84   2 2.84   2 2.84
   5  0.209  0.209  0.872-   1 2.84   1 2.84   1 2.84
 

IMPORTANT INFORMATION: All symmetrisations will be switched off!
NOSYMM: (Re-)initialisation of all symmetry stuff for point group C_1.

 
 
 KPOINTS: Automatic kpoint scheme                 

Automatic generation of k-mesh.
Space group operators:
 irot       det(A)        alpha          n_x          n_y          n_z        tau_x        tau_y        tau_z
    1     1.000000     0.000000     1.000000     0.000000     0.000000     0.000000     0.000000     0.000000
 
 Subroutine IBZKPT returns following result:
 ===========================================
 
 Found    512 irreducible k-points:
 
 Following reciprocal coordinates:
            Coordinates               Weight
  0.000000  0.000000  0.000000      1.000000
  0.125000 -0.000000 -0.000000      1.000000
  0.250000 -0.000000 -0.000000      1.000000
  0.375000 -0.000000 -0.000000      1.000000
  0.500000 -0.000000 -0.000000      1.000000
 -0.375000  0.000000  0.000000      1.000000
 -0.250000  0.000000  0.000000      1.000000
 -0.125000  0.000000  0.000000      1.000000
  0.000000  0.125000  0.000000      1.000000
  0.125000  0.125000 -0.000000      1.000000
  0.250000  0.125000 -0.000000      1.000000
  0.375000  0.125000 -0.000000      1.000000
  0.500000  0.125000  0.000000      1.000000
 -0.375000  0.125000  0.000000      1.000000
 -0.250000  0.125000  0.000000      1.000000
 -0.125000  0.125000 -0.000000      1.000000
  0.000000  0.250000  0.000000      1.000000
  0.125000  0.250000  0.000000      1.000000
  0.250000  0.250000 -0.000000      1.000000
  0.375000  0.250000  0.000000      1.000000
  0.500000  0.250000 -0.000000      1.000000
 -0.375000  0.250000  0.000000      1.000000
 -0.250000  0.250000 -0.000000      1.000000
 -0.125000  0.250000  0.000000      1.000000
  0.000000  0.375000  0.000000      1.000000
  0.125000  0.375000 -0.000000      1.000000
  0.250000  0.375000  0.000000      1.000000
  0.375000  0.375000 -0.000000      1.000000
  0.500000  0.375000 -0.000000      1.000000
 -0.375000  0.375000  0.000000      1.000000
 -0.250000  0.375000  0.000000      1.000000
 -0.125000  0.375000  0.000000      1.000000
  0.000000  0.500000  0.000000      1.000000
  0.125000  0.500000 -0.000000      1.000000
  0.250000  0.500000  0.000000      1.000000
  0.375000  0.500000 -0.000000      1.000000
  0.500000  0.500000 -0.000000      1.000000
 -0.375000  0.500000  0.000000      1.000000
 -0.250000  0.500000  0.000000      1.000000
 -0.125000  0.500000  0.000000      1.000000
  0.000000 -0.375000  0.000000      1.000000
  0.125000 -0.375000  0.000000      1.000000
  0.250000 -0.375000  0.000000      1.000000
  0.375000 -0.375000 -0.000000      1.000000
  0.500000 -0.375000 -0.000000      1.000000
 -0.375000 -0.375000  0.000000      1.000000
 -0.250000 -0.375000  0.000000      1.000000
 -0.125000 -0.375000  0.000000      1.000000
  0.000000 -0.250000  0.000000      1.000000
  0.125000 -0.250000 -0.000000      1.000000
  0.250000 -0.250000  0.000000      1.000000
  0.375000 -0.250000 -0.000000      1.000000
  0.500000 -0.250000 -0.000000      1.000000
 -0.375000 -0.250000  0.000000      1.000000
 -0.250000 -0.250000  0.000000      1.000000
 -0.125000 -0.250000  0.000000      1.000000
  0.000000 -0.125000  0.000000      1.000000
  0.125000 -0.125000  0.000000      1.000000
  0.250000 -0.125000 -0.000000      1.000000
  0.375000 -0.125000 -0.000000      1.000000
  0.500000 -0.125000 -0.000000      1.000000
 -0.375000 -0.125000  0.000000      1.000000
 -0.250000 -0.125000  0.000000      1.000000
 -0.125000 -0.125000  0.000000      1.000000
  0.000000  0.000000  0.125000      1.000000
  0.125000 -0.000000  0.125000      1.000000
  0.250000 -0.000000  0.125000      1.000000
  0.375000 -0.000000  0.125000      1.000000
  0.500000 -0.000000  0.125000      1.000000
 -0.375000  0.000000  0.125000      1.000000
 -0.250000  0.000000  0.125000      1.000000
 -0.125000  0.000000  0.125000      1.000000
  0.000000  0.125000  0.125000      1.000000
  0.125000  0.125000  0.125000      1.000000
  0.250000  0.125000  0.125000      1.000000
  0.375000  0.125000  0.125000      1.000000
  0.500000  0.125000  0.125000      1.000000
 -0.375000  0.125000  0.125000      1.000000
 -0.250000  0.125000  0.125000      1.000000
 -0.125000  0.125000  0.125000      1.000000
  0.000000  0.250000  0.125000      1.000000
  0.125000  0.250000  0.125000      1.000000
  0.250000  0.250000  0.125000      1.000000
  0.375000  0.250000  0.125000      1.000000
  0.500000  0.250000  0.125000      1.000000
 -0.375000  0.250000  0.125000      1.000000
 -0.250000  0.250000  0.125000      1.000000
 -0.125000  0.250000  0.125000      1.000000
  0.000000  0.375000  0.125000      1.000000
  0.125000  0.375000  0.125000      1.000000
  0.250000  0.375000  0.125000      1.000000
  0.375000  0.375000  0.125000      1.000000
  0.500000  0.375000  0.125000      1.000000
 -0.375000  0.375000  0.125000      1.000000
 -0.250000  0.375000  0.125000      1.000000
 -0.125000  0.375000  0.125000      1.000000
  0.000000  0.500000  0.125000      1.000000
  0.125000  0.500000  0.125000      1.000000
  0.250000  0.500000  0.125000      1.000000
  0.375000  0.500000  0.125000      1.000000
  0.500000  0.500000  0.125000      1.000000
 -0.375000  0.500000  0.125000      1.000000
 -0.250000  0.500000  0.125000      1.000000
 -0.125000  0.500000  0.125000      1.000000
  0.000000 -0.375000  0.125000      1.000000
  0.125000 -0.375000  0.125000      1.000000
  0.250000 -0.375000  0.125000      1.000000
  0.375000 -0.375000  0.125000      1.000000
  0.500000 -0.375000  0.125000      1.000000
 -0.375000 -0.375000  0.125000      1.000000
 -0.250000 -0.375000  0.125000      1.000000
 -0.125000 -0.375000  0.125000      1.000000
  0.000000 -0.250000  0.125000      1.000000
  0.125000 -0.250000  0.125000      1.000000
  0.250000 -0.250000  0.125000      1.000000
  0.375000 -0.250000  0.125000      1.000000
  0.500000 -0.250000  0.125000      1.000000
 -0.375000 -0.250000  0.125000      1.000000
 -0.250000 -0.250000  0.125000      1.000000
 -0.125000 -0.250000  0.125000      1.000000
  0.000000 -0.125000  0.125000      1.000000
  0.125000 -0.125000  0.125000      1.000000
  0.250000 -0.125000  0.125000      1.000000
  0.375000 -0.125000  0.125000      1.000000
  0.500000 -0.125000  0.125000      1.000000
 -0.375000 -0.125000  0.125000      1.000000
 -0.250000 -0.125000  0.125000      1.000000
 -0.125000 -0.125000  0.125000      1.000000
  0.000000  0.000000  0.250000      1.000000
  0.125000 -0.000000  0.250000      1.000000
  0.250000 -0.000000  0.250000      1.000000
  0.375000 -0.000000  0.250000      1.000000
  0.500000 -0.000000  0.250000      1.000000
 -0.375000  0.000000  0.250000      1.000000
 -0.250000  0.000000  0.250000      1.000000
 -0.125000  0.000000  0.250000      1.000000
  0.000000  0.125000  0.250000      1.000000
  0.125000  0.125000  0.250000      1.000000
  0.250000  0.125000  0.250000      1.000000
  0.375000  0.125000  0.250000      1.000000
  0.500000  0.125000  0.250000      1.000000
 -0.375000  0.125000  0.250000      1.000000
 -0.250000  0.125000  0.250000      1.000000
 -0.125000  0.125000  0.250000      1.000000
  0.000000  0.250000  0.250000      1.000000
  0.125000  0.250000  0.250000      1.000000
  0.250000  0.250000  0.250000      1.000000
  0.375000  0.250000  0.250000      1.000000
  0.500000  0.250000  0.250000      1.000000
 -0.375000  0.250000  0.250000      1.000000
 -0.250000  0.250000  0.250000      1.000000
 -0.125000  0.250000  0.250000      1.000000
  0.000000  0.375000  0.250000      1.000000
  0.125000  0.375000  0.250000      1.000000
  0.250000  0.375000  0.250000      1.000000
  0.375000  0.375000  0.250000      1.000000
  0.500000  0.375000  0.250000      1.000000
 -0.375000  0.375000  0.250000      1.000000
 -0.250000  0.375000  0.250000      1.000000
 -0.125000  0.375000  0.250000      1.000000
  0.000000  0.500000  0.250000      1.000000
  0.125000  0.500000  0.250000      1.000000
  0.250000  0.500000  0.250000      1.000000
  0.375000  0.500000  0.250000      1.000000
  0.500000  0.500000  0.250000      1.000000
 -0.375000  0.500000  0.250000      1.000000
 -0.250000  0.500000  0.250000      1.000000
 -0.125000  0.500000  0.250000      1.000000
  0.000000 -0.375000  0.250000      1.000000
  0.125000 -0.375000  0.250000      1.000000
  0.250000 -0.375000  0.250000      1.000000
  0.375000 -0.375000  0.250000      1.000000
  0.500000 -0.375000  0.250000      1.000000
 -0.375000 -0.375000  0.250000      1.000000
 -0.250000 -0.375000  0.250000      1.000000
 -0.125000 -0.375000  0.250000      1.000000
  0.000000 -0.250000  0.250000      1.000000
  0.125000 -0.250000  0.250000      1.000000
  0.250000 -0.250000  0.250000      1.000000
  0.375000 -0.250000  0.250000      1.000000
  0.500000 -0.250000  0.250000      1.000000
 -0.375000 -0.250000  0.250000      1.000000
 -0.250000 -0.250000  0.250000      1.000000
 -0.125000 -0.250000  0.250000      1.000000
  0.000000 -0.125000  0.250000      1.000000
  0.125000 -0.125000  0.250000      1.000000
  0.250000 -0.125000  0.250000      1.000000
  0.375000 -0.125000  0.250000      1.000000
  0.500000 -0.125000  0.250000      1.000000
 -0.375000 -0.125000  0.250000      1.000000
 -0.250000 -0.125000  0.250000      1.000000
 -0.125000 -0.125000  0.250000      1.000000
  0.000000  0.000000  0.375000      1.000000
  0.125000 -0.000000  0.375000      1.000000
  0.250000 -0.000000  0.375000      1.000000
  0.375000 -0.000000  0.375000      1.000000
  0.500000 -0.000000  0.375000      1.000000
 -0.375000  0.000000  0.375000      1.000000
 -0.250000  0.000000  0.375000      1.000000
 -0.125000  0.000000  0.375000      1.000000
  0.000000  0.125000  0.375000      1.000000
  0.125000  0.125000  0.375000      1.000000
  0.250000  0.125000  0.375000      1.000000
  0.375000  0.125000  0.375000      1.000000
  0.500000  0.125000  0.375000      1.000000
 -0.375000  0.125000  0.375000      1.000000
 -0.250000  0.125000  0.375000      1.000000
 -0.125000  0.125000  0.375000      1.000000
  0.000000  0.250000  0.375000      1.000000
  0.125000  0.250000  0.375000      1.000000
  0.250000  0.250000  0.375000      1.000000
  0.375000  0.250000  0.375000      1.000000
  0.500000  0.250000  0.375000      1.000000
 -0.375000  0.250000  0.375000      1.000000
 -0.250000  0.250000  0.375000      1.000000
 -0.125000  0.250000  0.375000      1.000000
  0.000000  0.375000  0.375000      1.000000
  0.125000  0.375000  0.375000      1.000000
  0.250000  0.375000  0.375000      1.000000
  0.375000  0.375000  0.375000      1.000000
  0.500000  0.375000  0.375000      1.000000
 -0.375000  0.375000  0.375000      1.000000
 -0.250000  0.375000  0.375000      1.000000
 -0.125000  0.375000  0.375000      1.000000
  0.000000  0.500000  0.375000      1.000000
  0.125000  0.500000  0.375000      1.000000
  0.250000  0.500000  0.375000      1.000000
  0.375000  0.500000  0.375000      1.000000
  0.500000  0.500000  0.375000      1.000000
 -0.375000  0.500000  0.375000      1.000000
 -0.250000  0.500000  0.375000      1.000000
 -0.125000  0.500000  0.375000      1.000000
  0.000000 -0.375000  0.375000      1.000000
  0.125000 -0.375000  0.375000      1.000000
  0.250000 -0.375000  0.375000      1.000000
  0.375000 -0.375000  0.375000      1.000000
  0.500000 -0.375000  0.375000      1.000000
 -0.375000 -0.375000  0.375000      1.000000
 -0.250000 -0.375000  0.375000      1.000000
 -0.125000 -0.375000  0.375000      1.000000
  0.000000 -0.250000  0.375000      1.000000
  0.125000 -0.250000  0.375000      1.000000
  0.250000 -0.250000  0.375000      1.000000
  0.375000 -0.250000  0.375000      1.000000
  0.500000 -0.250000  0.375000      1.000000
 -0.375000 -0.250000  0.375000      1.000000
 -0.250000 -0.250000  0.375000      1.000000
 -0.125000 -0.250000  0.375000      1.000000
  0.000000 -0.125000  0.375000      1.000000
  0.125000 -0.125000  0.375000      1.000000
  0.250000 -0.125000  0.375000      1.000000
  0.375000 -0.125000  0.375000      1.000000
  0.500000 -0.125000  0.375000      1.000000
 -0.375000 -0.125000  0.375000      1.000000
 -0.250000 -0.125000  0.375000      1.000000
 -0.125000 -0.125000  0.375000      1.000000
  0.000000  0.000000  0.500000      1.000000
  0.125000 -0.000000  0.500000      1.000000
  0.250000 -0.000000  0.500000      1.000000
  0.375000 -0.000000  0.500000      1.000000
  0.500000 -0.000000  0.500000      1.000000
 -0.375000  0.000000  0.500000      1.000000
 -0.250000  0.000000  0.500000      1.000000
 -0.125000  0.000000  0.500000      1.000000
  0.000000  0.125000  0.500000      1.000000
  0.125000  0.125000  0.500000      1.000000
  0.250000  0.125000  0.500000      1.000000
  0.375000  0.125000  0.500000      1.000000
  0.500000  0.125000  0.500000      1.000000
 -0.375000  0.125000  0.500000      1.000000
 -0.250000  0.125000  0.500000      1.000000
 -0.125000  0.125000  0.500000      1.000000
  0.000000  0.250000  0.500000      1.000000
  0.125000  0.250000  0.500000      1.000000
  0.250000  0.250000  0.500000      1.000000
  0.375000  0.250000  0.500000      1.000000
  0.500000  0.250000  0.500000      1.000000
 -0.375000  0.250000  0.500000      1.000000
 -0.250000  0.250000  0.500000      1.000000
 -0.125000  0.250000  0.500000      1.000000
  0.000000  0.375000  0.500000      1.000000
  0.125000  0.375000  0.500000      1.000000
  0.250000  0.375000  0.500000      1.000000
  0.375000  0.375000  0.500000      1.000000
  0.500000  0.375000  0.500000      1.000000
 -0.375000  0.375000  0.500000      1.000000
 -0.250000  0.375000  0.500000      1.000000
 -0.125000  0.375000  0.500000      1.000000
  0.000000  0.500000  0.500000      1.000000
  0.125000  0.500000  0.500000      1.000000
  0.250000  0.500000  0.500000      1.000000
  0.375000  0.500000  0.500000      1.000000
  0.500000  0.500000  0.500000      1.000000
 -0.375000  0.500000  0.500000      1.000000
 -0.250000  0.500000  0.500000      1.000000
 -0.125000  0.500000  0.500000      1.000000
  0.000000 -0.375000  0.500000      1.000000
  0.125000 -0.375000  0.500000      1.000000
  0.250000 -0.375000  0.500000      1.000000
  0.375000 -0.375000  0.500000      1.000000
  0.500000 -0.375000  0.500000      1.000000
 -0.375000 -0.375000  0.500000      1.000000
 -0.250000 -0.375000  0.500000      1.000000
 -0.125000 -0.375000  0.500000      1.000000
  0.000000 -0.250000  0.500000      1.000000
  0.125000 -0.250000  0.500000      1.000000
  0.250000 -0.250000  0.500000      1.000000
  0.375000 -0.250000  0.500000      1.000000
  0.500000 -0.250000  0.500000      1.000000
 -0.375000 -0.250000  0.500000      1.000000
 -0.250000 -0.250000  0.500000      1.000000
 -0.125000 -0.250000  0.500000      1.000000
  0.000000 -0.125000  0.500000      1.000000
  0.125000 -0.125000  0.500000      1.000000
  0.250000 -0.125000  0.500000      1.000000
  0.375000 -0.125000  0.500000      1.000000
  0.500000 -0.125000  0.500000      1.000000
 -0.375000 -0.125000  0.500000      1.000000
 -0.250000 -0.125000  0.500000      1.000000
 -0.125000 -0.125000  0.500000      1.000000
  0.000000  0.000000 -0.375000      1.000000
  0.125000 -0.000000 -0.375000      1.000000
  0.250000 -0.000000 -0.375000      1.000000
  0.375000 -0.000000 -0.375000      1.000000
  0.500000 -0.000000 -0.375000      1.000000
 -0.375000  0.000000 -0.375000      1.000000
 -0.250000  0.000000 -0.375000      1.000000
 -0.125000  0.000000 -0.375000      1.000000
  0.000000  0.125000 -0.375000      1.000000
  0.125000  0.125000 -0.375000      1.000000
  0.250000  0.125000 -0.375000      1.000000
  0.375000  0.125000 -0.375000      1.000000
  0.500000  0.125000 -0.375000      1.000000
 -0.375000  0.125000 -0.375000      1.000000
 -0.250000  0.125000 -0.375000      1.000000
 -0.125000  0.125000 -0.375000      1.000000
  0.000000  0.250000 -0.375000      1.000000
  0.125000  0.250000 -0.375000      1.000000
  0.250000  0.250000 -0.375000      1.000000
  0.375000  0.250000 -0.375000      1.000000
  0.500000  0.250000 -0.375000      1.000000
 -0.375000  0.250000 -0.375000      1.000000
 -0.250000  0.250000 -0.375000      1.000000
 -0.125000  0.250000 -0.375000      1.000000
  0.000000  0.375000 -0.375000      1.000000
  0.125000  0.375000 -0.375000      1.000000
  0.250000  0.375000 -0.375000      1.000000
  0.375000  0.375000 -0.375000      1.000000
  0.500000  0.375000 -0.375000      1.000000
 -0.375000  0.375000 -0.375000      1.000000
 -0.250000  0.375000 -0.375000      1.000000
 -0.125000  0.375000 -0.375000      1.000000
  0.000000  0.500000 -0.375000      1.000000
  0.125000  0.500000 -0.375000      1.000000
  0.250000  0.500000 -0.375000      1.000000
  0.375000  0.500000 -0.375000      1.000000
  0.500000  0.500000 -0.375000      1.000000
 -0.375000  0.500000 -0.375000      1.000000
 -0.250000  0.500000 -0.375000      1.000000
 -0.125000  0.500000 -0.375000      1.000000
  0.000000 -0.375000 -0.375000      1.000000
  0.125000 -0.375000 -0.375000      1.000000
  0.250000 -0.375000 -0.375000      1.000000
  0.375000 -0.375000 -0.375000      1.000000
  0.500000 -0.375000 -0.375000      1.000000
 -0.375000 -0.375000 -0.375000      1.000000
 -0.250000 -0.375000 -0.375000      1.000000
 -0.125000 -0.375000 -0.375000      1.000000
  0.000000 -0.250000 -0.375000      1.000000
  0.125000 -0.250000 -0.375000      1.000000
  0.250000 -0.250000 -0.375000      1.000000
  0.375000 -0.250000 -0.375000      1.000000
  0.500000 -0.250000 -0.375000      1.000000
 -0.375000 -0.250000 -0.375000      1.000000
 -0.250000 -0.250000 -0.375000      1.000000
 -0.125000 -0.250000 -0.375000      1.000000
  0.000000 -0.125000 -0.375000      1.000000
  0.125000 -0.125000 -0.375000      1.000000
  0.250000 -0.125000 -0.375000      1.000000
  0.375000 -0.125000 -0.375000      1.000000
  0.500000 -0.125000 -0.375000      1.000000
 -0.375000 -0.125000 -0.375000      1.000000
 -0.250000 -0.125000 -0.375000      1.000000
 -0.125000 -0.125000 -0.375000      1.000000
  0.000000  0.000000 -0.250000      1.000000
  0.125000 -0.000000 -0.250000      1.000000
  0.250000 -0.000000 -0.250000      1.000000
  0.375000 -0.000000 -0.250000      1.000000
  0.500000 -0.000000 -0.250000      1.000000
 -0.375000  0.000000 -0.250000      1.000000
 -0.250000  0.000000 -0.250000      1.000000
 -0.125000  0.000000 -0.250000      1.000000
  0.000000  0.125000 -0.250000      1.000000
  0.125000  0.125000 -0.250000      1.000000
  0.250000  0.125000 -0.250000      1.000000
  0.375000  0.125000 -0.250000      1.000000
  0.500000  0.125000 -0.250000      1.000000
 -0.375000  0.125000 -0.250000      1.000000
 -0.250000  0.125000 -0.250000      1.000000
 -0.125000  0.125000 -0.250000      1.000000
  0.000000  0.250000 -0.250000      1.000000
  0.125000  0.250000 -0.250000      1.000000
  0.250000  0.250000 -0.250000      1.000000
  0.375000  0.250000 -0.250000      1.000000
  0.500000  0.250000 -0.250000      1.000000
 -0.375000  0.250000 -0.250000      1.000000
 -0.250000  0.250000 -0.250000      1.000000
 -0.125000  0.250000 -0.250000      1.000000
  0.000000  0.375000 -0.250000      1.000000
  0.125000  0.375000 -0.250000      1.000000
  0.250000  0.375000 -0.250000      1.000000
  0.375000  0.375000 -0.250000      1.000000
  0.500000  0.375000 -0.250000      1.000000
 -0.375000  0.375000 -0.250000      1.000000
 -0.250000  0.375000 -0.250000      1.000000
 -0.125000  0.375000 -0.250000      1.000000
  0.000000  0.500000 -0.250000      1.000000
  0.125000  0.500000 -0.250000      1.000000
  0.250000  0.500000 -0.250000      1.000000
  0.375000  0.500000 -0.250000      1.000000
  0.500000  0.500000 -0.250000      1.000000
 -0.375000  0.500000 -0.250000      1.000000
 -0.250000  0.500000 -0.250000      1.000000
 -0.125000  0.500000 -0.250000      1.000000
  0.000000 -0.375000 -0.250000      1.000000
  0.125000 -0.375000 -0.250000      1.000000
  0.250000 -0.375000 -0.250000      1.000000
  0.375000 -0.375000 -0.250000      1.000000
  0.500000 -0.375000 -0.250000      1.000000
 -0.375000 -0.375000 -0.250000      1.000000
 -0.250000 -0.375000 -0.250000      1.000000
 -0.125000 -0.375000 -0.250000      1.000000
  0.000000 -0.250000 -0.250000      1.000000
  0.125000 -0.250000 -0.250000      1.000000
  0.250000 -0.250000 -0.250000      1.000000
  0.375000 -0.250000 -0.250000      1.000000
  0.500000 -0.250000 -0.250000      1.000000
 -0.375000 -0.250000 -0.250000      1.000000
 -0.250000 -0.250000 -0.250000      1.000000
 -0.125000 -0.250000 -0.250000      1.000000
  0.000000 -0.125000 -0.250000      1.000000
  0.125000 -0.125000 -0.250000      1.000000
  0.250000 -0.125000 -0.250000      1.000000
  0.375000 -0.125000 -0.250000      1.000000
  0.500000 -0.125000 -0.250000      1.000000
 -0.375000 -0.125000 -0.250000      1.000000
 -0.250000 -0.125000 -0.250000      1.000000
 -0.125000 -0.125000 -0.250000      1.000000
  0.000000  0.000000 -0.125000      1.000000
  0.125000 -0.000000 -0.125000      1.000000
  0.250000 -0.000000 -0.125000      1.000000
  0.375000 -0.000000 -0.125000      1.000000
  0.500000 -0.000000 -0.125000      1.000000
 -0.375000  0.000000 -0.125000      1.000000
 -0.250000  0.000000 -0.125000      1.000000
 -0.125000  0.000000 -0.125000      1.000000
  0.000000  0.125000 -0.125000      1.000000
  0.125000  0.125000 -0.125000      1.000000
  0.250000  0.125000 -0.125000      1.000000
  0.375000  0.125000 -0.125000      1.000000
  0.500000  0.125000 -0.125000      1.000000
 -0.375000  0.125000 -0.125000      1.000000
 -0.250000  0.125000 -0.125000      1.000000
 -0.125000  0.125000 -0.125000      1.000000
  0.000000  0.250000 -0.125000      1.000000
  0.125000  0.250000 -0.125000      1.000000
  0.250000  0.250000 -0.125000      1.000000
  0.375000  0.250000 -0.125000      1.000000
  0.500000  0.250000 -0.125000      1.000000
 -0.375000  0.250000 -0.125000      1.000000
 -0.250000  0.250000 -0.125000      1.000000
 -0.125000  0.250000 -0.125000      1.000000
  0.000000  0.375000 -0.125000      1.000000
  0.125000  0.375000 -0.125000      1.000000
  0.250000  0.375000 -0.125000      1.000000
  0.375000  0.375000 -0.125000      1.000000
  0.500000  0.375000 -0.125000      1.000000
 -0.375000  0.375000 -0.125000      1.000000
 -0.250000  0.375000 -0.125000      1.000000
 -0.125000  0.375000 -0.125000      1.000000
  0.000000  0.500000 -0.125000      1.000000
  0.125000  0.500000 -0.125000      1.000000
  0.250000  0.500000 -0.125000      1.000000
  0.375000  0.500000 -0.125000      1.000000
  0.500000  0.500000 -0.125000      1.000000
 -0.375000  0.500000 -0.125000      1.000000
 -0.250000  0.500000 -0.125000      1.000000
 -0.125000  0.500000 -0.125000      1.000000
  0.000000 -0.375000 -0.125000      1.000000
  0.125000 -0.375000 -0.125000      1.000000
  0.250000 -0.375000 -0.125000      1.000000
  0.375000 -0.375000 -0.125000      1.000000
  0.500000 -0.375000 -0.125000      1.000000
 -0.375000 -0.375000 -0.125000      1.000000
 -0.250000 -0.375000 -0.125000      1.000000
 -0.125000 -0.375000 -0.125000      1.000000
  0.000000 -0.250000 -0.125000      1.000000
  0.125000 -0.250000 -0.125000      1.000000
  0.250000 -0.250000 -0.125000      1.000000
  0.375000 -0.250000 -0.125000      1.000000
  0.500000 -0.250000 -0.125000      1.000000
 -0.375000 -0.250000 -0.125000      1.000000
 -0.250000 -0.250000 -0.125000      1.000000
 -0.125000 -0.250000 -0.125000      1.000000
  0.000000 -0.125000 -0.125000      1.000000
  0.125000 -0.125000 -0.125000      1.000000
  0.250000 -0.125000 -0.125000      1.000000
  0.375000 -0.125000 -0.125000      1.000000
  0.500000 -0.125000 -0.125000      1.000000
 -0.375000 -0.125000 -0.125000      1.000000
 -0.250000 -0.125000 -0.125000      1.000000
 -0.125000 -0.125000 -0.125000      1.000000
 
 Following cartesian coordinates:
            Coordinates               Weight
  0.000000  0.000000  0.000000      1.000000
  0.030428 -0.017568 -0.004474      1.000000
  0.060857 -0.035136 -0.008947      1.000000
  0.091285 -0.052704 -0.013421      1.000000
  0.121714 -0.070271 -0.017895      1.000000
 -0.091285  0.052704  0.013421      1.000000
 -0.060857  0.035136  0.008947      1.000000
 -0.030428  0.017568  0.004474      1.000000
  0.000000  0.035136 -0.004474      1.000000
  0.030428  0.017568 -0.008947      1.000000
  0.060857  0.000000 -0.013421      1.000000
  0.091285 -0.017568 -0.017895      1.000000
  0.121714 -0.035136 -0.022368      1.000000
 -0.091285  0.087839  0.008947      1.000000
 -0.060857  0.070271  0.004474      1.000000
 -0.030428  0.052704 -0.000000      1.000000
  0.000000  0.070271 -0.008947      1.000000
  0.030428  0.052704 -0.013421      1.000000
  0.060857  0.035136 -0.017895      1.000000
  0.091285  0.017568 -0.022368      1.000000
  0.121714  0.000000 -0.026842      1.000000
 -0.091285  0.122975  0.004474      1.000000
 -0.060857  0.105407 -0.000000      1.000000
 -0.030428  0.087839 -0.004474      1.000000
  0.000000  0.105407 -0.013421      1.000000
  0.030428  0.087839 -0.017895      1.000000
  0.060857  0.070271 -0.022368      1.000000
  0.091285  0.052704 -0.026842      1.000000
  0.121714  0.035136 -0.031316      1.000000
 -0.091285  0.158111 -0.000000      1.000000
 -0.060857  0.140543 -0.004474      1.000000
 -0.030428  0.122975 -0.008947      1.000000
  0.000000  0.140543 -0.017895      1.000000
  0.030428  0.122975 -0.022368      1.000000
  0.060857  0.105407 -0.026842      1.000000
  0.091285  0.087839 -0.031316      1.000000
  0.121714  0.070271 -0.035789      1.000000
 -0.091285  0.193246 -0.004474      1.000000
 -0.060857  0.175679 -0.008947      1.000000
 -0.030428  0.158111 -0.013421      1.000000
  0.000000 -0.105407  0.013421      1.000000
  0.030428 -0.122975  0.008947      1.000000
  0.060857 -0.140543  0.004474      1.000000
  0.091285 -0.158111  0.000000      1.000000
  0.121714 -0.175679 -0.004474      1.000000
 -0.091285 -0.052704  0.026842      1.000000
 -0.060857 -0.070271  0.022368      1.000000
 -0.030428 -0.087839  0.017895      1.000000
  0.000000 -0.070271  0.008947      1.000000
  0.030428 -0.087839  0.004474      1.000000
  0.060857 -0.105407  0.000000      1.000000
  0.091285 -0.122975 -0.004474      1.000000
  0.121714 -0.140543 -0.008947      1.000000
 -0.091285 -0.017568  0.022368      1.000000
 -0.060857 -0.035136  0.017895      1.000000
 -0.030428 -0.052704  0.013421      1.000000
  0.000000 -0.035136  0.004474      1.000000
  0.030428 -0.052704  0.000000      1.000000
  0.060857 -0.070271 -0.004474      1.000000
  0.091285 -0.087839 -0.008947      1.000000
  0.121714 -0.105407 -0.013421      1.000000
 -0.091285  0.017568  0.017895      1.000000
 -0.060857  0.000000  0.013421      1.000000
 -0.030428 -0.017568  0.008947      1.000000
  0.000000  0.000000  0.013421      1.000000
  0.030428 -0.017568  0.008947      1.000000
  0.060857 -0.035136  0.004474      1.000000
  0.091285 -0.052704  0.000000      1.000000
  0.121714 -0.070271 -0.004474      1.000000
 -0.091285  0.052704  0.026842      1.000000
 -0.060857  0.035136  0.022368      1.000000
 -0.030428  0.017568  0.017895      1.000000
  0.000000  0.035136  0.008947      1.000000
  0.030428  0.017568  0.004474      1.000000
  0.060857  0.000000 -0.000000      1.000000
  0.091285 -0.017568 -0.004474      1.000000
  0.121714 -0.035136 -0.008947      1.000000
 -0.091285  0.087839  0.022368      1.000000
 -0.060857  0.070271  0.017895      1.000000
 -0.030428  0.052704  0.013421      1.000000
  0.000000  0.070271  0.004474      1.000000
  0.030428  0.052704 -0.000000      1.000000
  0.060857  0.035136 -0.004474      1.000000
  0.091285  0.017568 -0.008947      1.000000
  0.121714  0.000000 -0.013421      1.000000
 -0.091285  0.122975  0.017895      1.000000
 -0.060857  0.105407  0.013421      1.000000
 -0.030428  0.087839  0.008947      1.000000
  0.000000  0.105407 -0.000000      1.000000
  0.030428  0.087839 -0.004474      1.000000
  0.060857  0.070271 -0.008947      1.000000
  0.091285  0.052704 -0.013421      1.000000
  0.121714  0.035136 -0.017895      1.000000
 -0.091285  0.158111  0.013421      1.000000
 -0.060857  0.140543  0.008947      1.000000
 -0.030428  0.122975  0.004474      1.000000
  0.000000  0.140543 -0.004474      1.000000
  0.030428  0.122975 -0.008947      1.000000
  0.060857  0.105407 -0.013421      1.000000
  0.091285  0.087839 -0.017895      1.000000
  0.121714  0.070271 -0.022368      1.000000
 -0.091285  0.193246  0.008947      1.000000
 -0.060857  0.175679  0.004474      1.000000
 -0.030428  0.158111  0.000000      1.000000
  0.000000 -0.105407  0.026842      1.000000
  0.030428 -0.122975  0.022368      1.000000
  0.060857 -0.140543  0.017895      1.000000
  0.091285 -0.158111  0.013421      1.000000
  0.121714 -0.175679  0.008947      1.000000
 -0.091285 -0.052704  0.040263      1.000000
 -0.060857 -0.070271  0.035789      1.000000
 -0.030428 -0.087839  0.031316      1.000000
  0.000000 -0.070271  0.022368      1.000000
  0.030428 -0.087839  0.017895      1.000000
  0.060857 -0.105407  0.013421      1.000000
  0.091285 -0.122975  0.008947      1.000000
  0.121714 -0.140543  0.004474      1.000000
 -0.091285 -0.017568  0.035789      1.000000
 -0.060857 -0.035136  0.031316      1.000000
 -0.030428 -0.052704  0.026842      1.000000
  0.000000 -0.035136  0.017895      1.000000
  0.030428 -0.052704  0.013421      1.000000
  0.060857 -0.070271  0.008947      1.000000
  0.091285 -0.087839  0.004474      1.000000
  0.121714 -0.105407  0.000000      1.000000
 -0.091285  0.017568  0.031316      1.000000
 -0.060857  0.000000  0.026842      1.000000
 -0.030428 -0.017568  0.022368      1.000000
  0.000000  0.000000  0.026842      1.000000
  0.030428 -0.017568  0.022368      1.000000
  0.060857 -0.035136  0.017895      1.000000
  0.091285 -0.052704  0.013421      1.000000
  0.121714 -0.070271  0.008947      1.000000
 -0.091285  0.052704  0.040263      1.000000
 -0.060857  0.035136  0.035789      1.000000
 -0.030428  0.017568  0.031316      1.000000
  0.000000  0.035136  0.022368      1.000000
  0.030428  0.017568  0.017895      1.000000
  0.060857  0.000000  0.013421      1.000000
  0.091285 -0.017568  0.008947      1.000000
  0.121714 -0.035136  0.004474      1.000000
 -0.091285  0.087839  0.035789      1.000000
 -0.060857  0.070271  0.031316      1.000000
 -0.030428  0.052704  0.026842      1.000000
  0.000000  0.070271  0.017895      1.000000
  0.030428  0.052704  0.013421      1.000000
  0.060857  0.035136  0.008947      1.000000
  0.091285  0.017568  0.004474      1.000000
  0.121714  0.000000 -0.000000      1.000000
 -0.091285  0.122975  0.031316      1.000000
 -0.060857  0.105407  0.026842      1.000000
 -0.030428  0.087839  0.022368      1.000000
  0.000000  0.105407  0.013421      1.000000
  0.030428  0.087839  0.008947      1.000000
  0.060857  0.070271  0.004474      1.000000
  0.091285  0.052704 -0.000000      1.000000
  0.121714  0.035136 -0.004474      1.000000
 -0.091285  0.158111  0.026842      1.000000
 -0.060857  0.140543  0.022368      1.000000
 -0.030428  0.122975  0.017895      1.000000
  0.000000  0.140543  0.008947      1.000000
  0.030428  0.122975  0.004474      1.000000
  0.060857  0.105407 -0.000000      1.000000
  0.091285  0.087839 -0.004474      1.000000
  0.121714  0.070271 -0.008947      1.000000
 -0.091285  0.193246  0.022368      1.000000
 -0.060857  0.175679  0.017895      1.000000
 -0.030428  0.158111  0.013421      1.000000
  0.000000 -0.105407  0.040263      1.000000
  0.030428 -0.122975  0.035789      1.000000
  0.060857 -0.140543  0.031316      1.000000
  0.091285 -0.158111  0.026842      1.000000
  0.121714 -0.175679  0.022368      1.000000
 -0.091285 -0.052704  0.053684      1.000000
 -0.060857 -0.070271  0.049210      1.000000
 -0.030428 -0.087839  0.044737      1.000000
  0.000000 -0.070271  0.035789      1.000000
  0.030428 -0.087839  0.031316      1.000000
  0.060857 -0.105407  0.026842      1.000000
  0.091285 -0.122975  0.022368      1.000000
  0.121714 -0.140543  0.017895      1.000000
 -0.091285 -0.017568  0.049210      1.000000
 -0.060857 -0.035136  0.044737      1.000000
 -0.030428 -0.052704  0.040263      1.000000
  0.000000 -0.035136  0.031316      1.000000
  0.030428 -0.052704  0.026842      1.000000
  0.060857 -0.070271  0.022368      1.000000
  0.091285 -0.087839  0.017895      1.000000
  0.121714 -0.105407  0.013421      1.000000
 -0.091285  0.017568  0.044737      1.000000
 -0.060857  0.000000  0.040263      1.000000
 -0.030428 -0.017568  0.035789      1.000000
  0.000000  0.000000  0.040263      1.000000
  0.030428 -0.017568  0.035789      1.000000
  0.060857 -0.035136  0.031316      1.000000
  0.091285 -0.052704  0.026842      1.000000
  0.121714 -0.070271  0.022368      1.000000
 -0.091285  0.052704  0.053684      1.000000
 -0.060857  0.035136  0.049210      1.000000
 -0.030428  0.017568  0.044737      1.000000
  0.000000  0.035136  0.035789      1.000000
  0.030428  0.017568  0.031316      1.000000
  0.060857  0.000000  0.026842      1.000000
  0.091285 -0.017568  0.022368      1.000000
  0.121714 -0.035136  0.017895      1.000000
 -0.091285  0.087839  0.049210      1.000000
 -0.060857  0.070271  0.044737      1.000000
 -0.030428  0.052704  0.040263      1.000000
  0.000000  0.070271  0.031316      1.000000
  0.030428  0.052704  0.026842      1.000000
  0.060857  0.035136  0.022368      1.000000
  0.091285  0.017568  0.017895      1.000000
  0.121714  0.000000  0.013421      1.000000
 -0.091285  0.122975  0.044737      1.000000
 -0.060857  0.105407  0.040263      1.000000
 -0.030428  0.087839  0.035789      1.000000
  0.000000  0.105407  0.026842      1.000000
  0.030428  0.087839  0.022368      1.000000
  0.060857  0.070271  0.017895      1.000000
  0.091285  0.052704  0.013421      1.000000
  0.121714  0.035136  0.008947      1.000000
 -0.091285  0.158111  0.040263      1.000000
 -0.060857  0.140543  0.035789      1.000000
 -0.030428  0.122975  0.031316      1.000000
  0.000000  0.140543  0.022368      1.000000
  0.030428  0.122975  0.017895      1.000000
  0.060857  0.105407  0.013421      1.000000
  0.091285  0.087839  0.008947      1.000000
  0.121714  0.070271  0.004474      1.000000
 -0.091285  0.193246  0.035789      1.000000
 -0.060857  0.175679  0.031316      1.000000
 -0.030428  0.158111  0.026842      1.000000
  0.000000 -0.105407  0.053684      1.000000
  0.030428 -0.122975  0.049210      1.000000
  0.060857 -0.140543  0.044737      1.000000
  0.091285 -0.158111  0.040263      1.000000
  0.121714 -0.175679  0.035789      1.000000
 -0.091285 -0.052704  0.067105      1.000000
 -0.060857 -0.070271  0.062631      1.000000
 -0.030428 -0.087839  0.058158      1.000000
  0.000000 -0.070271  0.049210      1.000000
  0.030428 -0.087839  0.044737      1.000000
  0.060857 -0.105407  0.040263      1.000000
  0.091285 -0.122975  0.035789      1.000000
  0.121714 -0.140543  0.031316      1.000000
 -0.091285 -0.017568  0.062631      1.000000
 -0.060857 -0.035136  0.058158      1.000000
 -0.030428 -0.052704  0.053684      1.000000
  0.000000 -0.035136  0.044737      1.000000
  0.030428 -0.052704  0.040263      1.000000
  0.060857 -0.070271  0.035789      1.000000
  0.091285 -0.087839  0.031316      1.000000
  0.121714 -0.105407  0.026842      1.000000
 -0.091285  0.017568  0.058158      1.000000
 -0.060857  0.000000  0.053684      1.000000
 -0.030428 -0.017568  0.049210      1.000000
  0.000000  0.000000  0.053684      1.000000
  0.030428 -0.017568  0.049210      1.000000
  0.060857 -0.035136  0.044737      1.000000
  0.091285 -0.052704  0.040263      1.000000
  0.121714 -0.070271  0.035789      1.000000
 -0.091285  0.052704  0.067105      1.000000
 -0.060857  0.035136  0.062631      1.000000
 -0.030428  0.017568  0.058158      1.000000
  0.000000  0.035136  0.049210      1.000000
  0.030428  0.017568  0.044737      1.000000
  0.060857  0.000000  0.040263      1.000000
  0.091285 -0.017568  0.035789      1.000000
  0.121714 -0.035136  0.031316      1.000000
 -0.091285  0.087839  0.062631      1.000000
 -0.060857  0.070271  0.058158      1.000000
 -0.030428  0.052704  0.053684      1.000000
  0.000000  0.070271  0.044737      1.000000
  0.030428  0.052704  0.040263      1.000000
  0.060857  0.035136  0.035789      1.000000
  0.091285  0.017568  0.031316      1.000000
  0.121714  0.000000  0.026842      1.000000
 -0.091285  0.122975  0.058158      1.000000
 -0.060857  0.105407  0.053684      1.000000
 -0.030428  0.087839  0.049210      1.000000
  0.000000  0.105407  0.040263      1.000000
  0.030428  0.087839  0.035789      1.000000
  0.060857  0.070271  0.031316      1.000000
  0.091285  0.052704  0.026842      1.000000
  0.121714  0.035136  0.022368      1.000000
 -0.091285  0.158111  0.053684      1.000000
 -0.060857  0.140543  0.049210      1.000000
 -0.030428  0.122975  0.044737      1.000000
  0.000000  0.140543  0.035789      1.000000
  0.030428  0.122975  0.031316      1.000000
  0.060857  0.105407  0.026842      1.000000
  0.091285  0.087839  0.022368      1.000000
  0.121714  0.070271  0.017895      1.000000
 -0.091285  0.193246  0.049210      1.000000
 -0.060857  0.175679  0.044737      1.000000
 -0.030428  0.158111  0.040263      1.000000
  0.000000 -0.105407  0.067105      1.000000
  0.030428 -0.122975  0.062631      1.000000
  0.060857 -0.140543  0.058158      1.000000
  0.091285 -0.158111  0.053684      1.000000
  0.121714 -0.175679  0.049210      1.000000
 -0.091285 -0.052704  0.080526      1.000000
 -0.060857 -0.070271  0.076052      1.000000
 -0.030428 -0.087839  0.071579      1.000000
  0.000000 -0.070271  0.062631      1.000000
  0.030428 -0.087839  0.058158      1.000000
  0.060857 -0.105407  0.053684      1.000000
  0.091285 -0.122975  0.049210      1.000000
  0.121714 -0.140543  0.044737      1.000000
 -0.091285 -0.017568  0.076052      1.000000
 -0.060857 -0.035136  0.071579      1.000000
 -0.030428 -0.052704  0.067105      1.000000
  0.000000 -0.035136  0.058158      1.000000
  0.030428 -0.052704  0.053684      1.000000
  0.060857 -0.070271  0.049210      1.000000
  0.091285 -0.087839  0.044737      1.000000
  0.121714 -0.105407  0.040263      1.000000
 -0.091285  0.017568  0.071579      1.000000
 -0.060857  0.000000  0.067105      1.000000
 -0.030428 -0.017568  0.062631      1.000000
  0.000000  0.000000 -0.040263      1.000000
  0.030428 -0.017568 -0.044737      1.000000
  0.060857 -0.035136 -0.049210      1.000000
  0.091285 -0.052704 -0.053684      1.000000
  0.121714 -0.070271 -0.058158      1.000000
 -0.091285  0.052704 -0.026842      1.000000
 -0.060857  0.035136 -0.031316      1.000000
 -0.030428  0.017568 -0.035789      1.000000
  0.000000  0.035136 -0.044737      1.000000
  0.030428  0.017568 -0.049210      1.000000
  0.060857  0.000000 -0.053684      1.000000
  0.091285 -0.017568 -0.058158      1.000000
  0.121714 -0.035136 -0.062631      1.000000
 -0.091285  0.087839 -0.031316      1.000000
 -0.060857  0.070271 -0.035789      1.000000
 -0.030428  0.052704 -0.040263      1.000000
  0.000000  0.070271 -0.049210      1.000000
  0.030428  0.052704 -0.053684      1.000000
  0.060857  0.035136 -0.058158      1.000000
  0.091285  0.017568 -0.062631      1.000000
  0.121714  0.000000 -0.067105      1.000000
 -0.091285  0.122975 -0.035789      1.000000
 -0.060857  0.105407 -0.040263      1.000000
 -0.030428  0.087839 -0.044737      1.000000
  0.000000  0.105407 -0.053684      1.000000
  0.030428  0.087839 -0.058158      1.000000
  0.060857  0.070271 -0.062631      1.000000
  0.091285  0.052704 -0.067105      1.000000
  0.121714  0.035136 -0.071579      1.000000
 -0.091285  0.158111 -0.040263      1.000000
 -0.060857  0.140543 -0.044737      1.000000
 -0.030428  0.122975 -0.049210      1.000000
  0.000000  0.140543 -0.058158      1.000000
  0.030428  0.122975 -0.062631      1.000000
  0.060857  0.105407 -0.067105      1.000000
  0.091285  0.087839 -0.071579      1.000000
  0.121714  0.070271 -0.076052      1.000000
 -0.091285  0.193246 -0.044737      1.000000
 -0.060857  0.175679 -0.049210      1.000000
 -0.030428  0.158111 -0.053684      1.000000
  0.000000 -0.105407 -0.026842      1.000000
  0.030428 -0.122975 -0.031316      1.000000
  0.060857 -0.140543 -0.035789      1.000000
  0.091285 -0.158111 -0.040263      1.000000
  0.121714 -0.175679 -0.044737      1.000000
 -0.091285 -0.052704 -0.013421      1.000000
 -0.060857 -0.070271 -0.017895      1.000000
 -0.030428 -0.087839 -0.022368      1.000000
  0.000000 -0.070271 -0.031316      1.000000
  0.030428 -0.087839 -0.035789      1.000000
  0.060857 -0.105407 -0.040263      1.000000
  0.091285 -0.122975 -0.044737      1.000000
  0.121714 -0.140543 -0.049210      1.000000
 -0.091285 -0.017568 -0.017895      1.000000
 -0.060857 -0.035136 -0.022368      1.000000
 -0.030428 -0.052704 -0.026842      1.000000
  0.000000 -0.035136 -0.035789      1.000000
  0.030428 -0.052704 -0.040263      1.000000
  0.060857 -0.070271 -0.044737      1.000000
  0.091285 -0.087839 -0.049210      1.000000
  0.121714 -0.105407 -0.053684      1.000000
 -0.091285  0.017568 -0.022368      1.000000
 -0.060857  0.000000 -0.026842      1.000000
 -0.030428 -0.017568 -0.031316      1.000000
  0.000000  0.000000 -0.026842      1.000000
  0.030428 -0.017568 -0.031316      1.000000
  0.060857 -0.035136 -0.035789      1.000000
  0.091285 -0.052704 -0.040263      1.000000
  0.121714 -0.070271 -0.044737      1.000000
 -0.091285  0.052704 -0.013421      1.000000
 -0.060857  0.035136 -0.017895      1.000000
 -0.030428  0.017568 -0.022368      1.000000
  0.000000  0.035136 -0.031316      1.000000
  0.030428  0.017568 -0.035789      1.000000
  0.060857  0.000000 -0.040263      1.000000
  0.091285 -0.017568 -0.044737      1.000000
  0.121714 -0.035136 -0.049210      1.000000
 -0.091285  0.087839 -0.017895      1.000000
 -0.060857  0.070271 -0.022368      1.000000
 -0.030428  0.052704 -0.026842      1.000000
  0.000000  0.070271 -0.035789      1.000000
  0.030428  0.052704 -0.040263      1.000000
  0.060857  0.035136 -0.044737      1.000000
  0.091285  0.017568 -0.049210      1.000000
  0.121714  0.000000 -0.053684      1.000000
 -0.091285  0.122975 -0.022368      1.000000
 -0.060857  0.105407 -0.026842      1.000000
 -0.030428  0.087839 -0.031316      1.000000
  0.000000  0.105407 -0.040263      1.000000
  0.030428  0.087839 -0.044737      1.000000
  0.060857  0.070271 -0.049210      1.000000
  0.091285  0.052704 -0.053684      1.000000
  0.121714  0.035136 -0.058158      1.000000
 -0.091285  0.158111 -0.026842      1.000000
 -0.060857  0.140543 -0.031316      1.000000
 -0.030428  0.122975 -0.035789      1.000000
  0.000000  0.140543 -0.044737      1.000000
  0.030428  0.122975 -0.049210      1.000000
  0.060857  0.105407 -0.053684      1.000000
  0.091285  0.087839 -0.058158      1.000000
  0.121714  0.070271 -0.062631      1.000000
 -0.091285  0.193246 -0.031316      1.000000
 -0.060857  0.175679 -0.035789      1.000000
 -0.030428  0.158111 -0.040263      1.000000
  0.000000 -0.105407 -0.013421      1.000000
  0.030428 -0.122975 -0.017895      1.000000
  0.060857 -0.140543 -0.022368      1.000000
  0.091285 -0.158111 -0.026842      1.000000
  0.121714 -0.175679 -0.031316      1.000000
 -0.091285 -0.052704  0.000000      1.000000
 -0.060857 -0.070271 -0.004474      1.000000
 -0.030428 -0.087839 -0.008947      1.000000
  0.000000 -0.070271 -0.017895      1.000000
  0.030428 -0.087839 -0.022368      1.000000
  0.060857 -0.105407 -0.026842      1.000000
  0.091285 -0.122975 -0.031316      1.000000
  0.121714 -0.140543 -0.035789      1.000000
 -0.091285 -0.017568 -0.004474      1.000000
 -0.060857 -0.035136 -0.008947      1.000000
 -0.030428 -0.052704 -0.013421      1.000000
  0.000000 -0.035136 -0.022368      1.000000
  0.030428 -0.052704 -0.026842      1.000000
  0.060857 -0.070271 -0.031316      1.000000
  0.091285 -0.087839 -0.035789      1.000000
  0.121714 -0.105407 -0.040263      1.000000
 -0.091285  0.017568 -0.008947      1.000000
 -0.060857  0.000000 -0.013421      1.000000
 -0.030428 -0.017568 -0.017895      1.000000
  0.000000  0.000000 -0.013421      1.000000
  0.030428 -0.017568 -0.017895      1.000000
  0.060857 -0.035136 -0.022368      1.000000
  0.091285 -0.052704 -0.026842      1.000000
  0.121714 -0.070271 -0.031316      1.000000
 -0.091285  0.052704 -0.000000      1.000000
 -0.060857  0.035136 -0.004474      1.000000
 -0.030428  0.017568 -0.008947      1.000000
  0.000000  0.035136 -0.017895      1.000000
  0.030428  0.017568 -0.022368      1.000000
  0.060857  0.000000 -0.026842      1.000000
  0.091285 -0.017568 -0.031316      1.000000
  0.121714 -0.035136 -0.035789      1.000000
 -0.091285  0.087839 -0.004474      1.000000
 -0.060857  0.070271 -0.008947      1.000000
 -0.030428  0.052704 -0.013421      1.000000
  0.000000  0.070271 -0.022368      1.000000
  0.030428  0.052704 -0.026842      1.000000
  0.060857  0.035136 -0.031316      1.000000
  0.091285  0.017568 -0.035789      1.000000
  0.121714  0.000000 -0.040263      1.000000
 -0.091285  0.122975 -0.008947      1.000000
 -0.060857  0.105407 -0.013421      1.000000
 -0.030428  0.087839 -0.017895      1.000000
  0.000000  0.105407 -0.026842      1.000000
  0.030428  0.087839 -0.031316      1.000000
  0.060857  0.070271 -0.035789      1.000000
  0.091285  0.052704 -0.040263      1.000000
  0.121714  0.035136 -0.044737      1.000000
 -0.091285  0.158111 -0.013421      1.000000
 -0.060857  0.140543 -0.017895      1.000000
 -0.030428  0.122975 -0.022368      1.000000
  0.000000  0.140543 -0.031316      1.000000
  0.030428  0.122975 -0.035789      1.000000
  0.060857  0.105407 -0.040263      1.000000
  0.091285  0.087839 -0.044737      1.000000
  0.121714  0.070271 -0.049210      1.000000
 -0.091285  0.193246 -0.017895      1.000000
 -0.060857  0.175679 -0.022368      1.000000
 -0.030428  0.158111 -0.026842      1.000000
  0.000000 -0.105407  0.000000      1.000000
  0.030428 -0.122975 -0.004474      1.000000
  0.060857 -0.140543 -0.008947      1.000000
  0.091285 -0.158111 -0.013421      1.000000
  0.121714 -0.175679 -0.017895      1.000000
 -0.091285 -0.052704  0.013421      1.000000
 -0.060857 -0.070271  0.008947      1.000000
 -0.030428 -0.087839  0.004474      1.000000
  0.000000 -0.070271 -0.004474      1.000000
  0.030428 -0.087839 -0.008947      1.000000
  0.060857 -0.105407 -0.013421      1.000000
  0.091285 -0.122975 -0.017895      1.000000
  0.121714 -0.140543 -0.022368      1.000000
 -0.091285 -0.017568  0.008947      1.000000
 -0.060857 -0.035136  0.004474      1.000000
 -0.030428 -0.052704  0.000000      1.000000
  0.000000 -0.035136 -0.008947      1.000000
  0.030428 -0.052704 -0.013421      1.000000
  0.060857 -0.070271 -0.017895      1.000000
  0.091285 -0.087839 -0.022368      1.000000
  0.121714 -0.105407 -0.026842      1.000000
 -0.091285  0.017568  0.004474      1.000000
 -0.060857  0.000000  0.000000      1.000000
 -0.030428 -0.017568 -0.004474      1.000000
 
 
 Subroutine IBZKPT_HF returns following result:
 ==============================================
 
 Found    512 k-points in 1st BZ
 the following    512 k-points will be used (e.g. in the exchange kernel)
 Following reciprocal coordinates:   # in IRBZ
  0.000000  0.000000  0.000000    0.00195312   1 t-inv F
  0.125000 -0.000000 -0.000000    0.00195312   2 t-inv F
  0.250000 -0.000000 -0.000000    0.00195312   3 t-inv F
  0.375000 -0.000000 -0.000000    0.00195312   4 t-inv F
  0.500000 -0.000000 -0.000000    0.00195312   5 t-inv F
 -0.375000  0.000000  0.000000    0.00195312   6 t-inv F
 -0.250000  0.000000  0.000000    0.00195312   7 t-inv F
 -0.125000  0.000000  0.000000    0.00195312   8 t-inv F
  0.000000  0.125000  0.000000    0.00195312   9 t-inv F
  0.125000  0.125000 -0.000000    0.00195312  10 t-inv F
  0.250000  0.125000 -0.000000    0.00195312  11 t-inv F
  0.375000  0.125000 -0.000000    0.00195312  12 t-inv F
  0.500000  0.125000  0.000000    0.00195312  13 t-inv F
 -0.375000  0.125000  0.000000    0.00195312  14 t-inv F
 -0.250000  0.125000  0.000000    0.00195312  15 t-inv F
 -0.125000  0.125000 -0.000000    0.00195312  16 t-inv F
  0.000000  0.250000  0.000000    0.00195312  17 t-inv F
  0.125000  0.250000  0.000000    0.00195312  18 t-inv F
  0.250000  0.250000 -0.000000    0.00195312  19 t-inv F
  0.375000  0.250000  0.000000    0.00195312  20 t-inv F
  0.500000  0.250000 -0.000000    0.00195312  21 t-inv F
 -0.375000  0.250000  0.000000    0.00195312  22 t-inv F
 -0.250000  0.250000 -0.000000    0.00195312  23 t-inv F
 -0.125000  0.250000  0.000000    0.00195312  24 t-inv F
  0.000000  0.375000  0.000000    0.00195312  25 t-inv F
  0.125000  0.375000 -0.000000    0.00195312  26 t-inv F
  0.250000  0.375000  0.000000    0.00195312  27 t-inv F
  0.375000  0.375000 -0.000000    0.00195312  28 t-inv F
  0.500000  0.375000 -0.000000    0.00195312  29 t-inv F
 -0.375000  0.375000  0.000000    0.00195312  30 t-inv F
 -0.250000  0.375000  0.000000    0.00195312  31 t-inv F
 -0.125000  0.375000  0.000000    0.00195312  32 t-inv F
  0.000000  0.500000  0.000000    0.00195312  33 t-inv F
  0.125000  0.500000 -0.000000    0.00195312  34 t-inv F
  0.250000  0.500000  0.000000    0.00195312  35 t-inv F
  0.375000  0.500000 -0.000000    0.00195312  36 t-inv F
  0.500000  0.500000 -0.000000    0.00195312  37 t-inv F
 -0.375000  0.500000  0.000000    0.00195312  38 t-inv F
 -0.250000  0.500000  0.000000    0.00195312  39 t-inv F
 -0.125000  0.500000  0.000000    0.00195312  40 t-inv F
  0.000000 -0.375000  0.000000    0.00195312  41 t-inv F
  0.125000 -0.375000  0.000000    0.00195312  42 t-inv F
  0.250000 -0.375000  0.000000    0.00195312  43 t-inv F
  0.375000 -0.375000 -0.000000    0.00195312  44 t-inv F
  0.500000 -0.375000 -0.000000    0.00195312  45 t-inv F
 -0.375000 -0.375000  0.000000    0.00195312  46 t-inv F
 -0.250000 -0.375000  0.000000    0.00195312  47 t-inv F
 -0.125000 -0.375000  0.000000    0.00195312  48 t-inv F
  0.000000 -0.250000  0.000000    0.00195312  49 t-inv F
  0.125000 -0.250000 -0.000000    0.00195312  50 t-inv F
  0.250000 -0.250000  0.000000    0.00195312  51 t-inv F
  0.375000 -0.250000 -0.000000    0.00195312  52 t-inv F
  0.500000 -0.250000 -0.000000    0.00195312  53 t-inv F
 -0.375000 -0.250000  0.000000    0.00195312  54 t-inv F
 -0.250000 -0.250000  0.000000    0.00195312  55 t-inv F
 -0.125000 -0.250000  0.000000    0.00195312  56 t-inv F
  0.000000 -0.125000  0.000000    0.00195312  57 t-inv F
  0.125000 -0.125000  0.000000    0.00195312  58 t-inv F
  0.250000 -0.125000 -0.000000    0.00195312  59 t-inv F
  0.375000 -0.125000 -0.000000    0.00195312  60 t-inv F
  0.500000 -0.125000 -0.000000    0.00195312  61 t-inv F
 -0.375000 -0.125000  0.000000    0.00195312  62 t-inv F
 -0.250000 -0.125000  0.000000    0.00195312  63 t-inv F
 -0.125000 -0.125000  0.000000    0.00195312  64 t-inv F
  0.000000  0.000000  0.125000    0.00195312  65 t-inv F
  0.125000 -0.000000  0.125000    0.00195312  66 t-inv F
  0.250000 -0.000000  0.125000    0.00195312  67 t-inv F
  0.375000 -0.000000  0.125000    0.00195312  68 t-inv F
  0.500000 -0.000000  0.125000    0.00195312  69 t-inv F
 -0.375000  0.000000  0.125000    0.00195312  70 t-inv F
 -0.250000  0.000000  0.125000    0.00195312  71 t-inv F
 -0.125000  0.000000  0.125000    0.00195312  72 t-inv F
  0.000000  0.125000  0.125000    0.00195312  73 t-inv F
  0.125000  0.125000  0.125000    0.00195312  74 t-inv F
  0.250000  0.125000  0.125000    0.00195312  75 t-inv F
  0.375000  0.125000  0.125000    0.00195312  76 t-inv F
  0.500000  0.125000  0.125000    0.00195312  77 t-inv F
 -0.375000  0.125000  0.125000    0.00195312  78 t-inv F
 -0.250000  0.125000  0.125000    0.00195312  79 t-inv F
 -0.125000  0.125000  0.125000    0.00195312  80 t-inv F
  0.000000  0.250000  0.125000    0.00195312  81 t-inv F
  0.125000  0.250000  0.125000    0.00195312  82 t-inv F
  0.250000  0.250000  0.125000    0.00195312  83 t-inv F
  0.375000  0.250000  0.125000    0.00195312  84 t-inv F
  0.500000  0.250000  0.125000    0.00195312  85 t-inv F
 -0.375000  0.250000  0.125000    0.00195312  86 t-inv F
 -0.250000  0.250000  0.125000    0.00195312  87 t-inv F
 -0.125000  0.250000  0.125000    0.00195312  88 t-inv F
  0.000000  0.375000  0.125000    0.00195312  89 t-inv F
  0.125000  0.375000  0.125000    0.00195312  90 t-inv F
  0.250000  0.375000  0.125000    0.00195312  91 t-inv F
  0.375000  0.375000  0.125000    0.00195312  92 t-inv F
  0.500000  0.375000  0.125000    0.00195312  93 t-inv F
 -0.375000  0.375000  0.125000    0.00195312  94 t-inv F
 -0.250000  0.375000  0.125000    0.00195312  95 t-inv F
 -0.125000  0.375000  0.125000    0.00195312  96 t-inv F
  0.000000  0.500000  0.125000    0.00195312  97 t-inv F
  0.125000  0.500000  0.125000    0.00195312  98 t-inv F
  0.250000  0.500000  0.125000    0.00195312  99 t-inv F
  0.375000  0.500000  0.125000    0.00195312 100 t-inv F
  0.500000  0.500000  0.125000    0.00195312 101 t-inv F
 -0.375000  0.500000  0.125000    0.00195312 102 t-inv F
 -0.250000  0.500000  0.125000    0.00195312 103 t-inv F
 -0.125000  0.500000  0.125000    0.00195312 104 t-inv F
  0.000000 -0.375000  0.125000    0.00195312 105 t-inv F
  0.125000 -0.375000  0.125000    0.00195312 106 t-inv F
  0.250000 -0.375000  0.125000    0.00195312 107 t-inv F
  0.375000 -0.375000  0.125000    0.00195312 108 t-inv F
  0.500000 -0.375000  0.125000    0.00195312 109 t-inv F
 -0.375000 -0.375000  0.125000    0.00195312 110 t-inv F
 -0.250000 -0.375000  0.125000    0.00195312 111 t-inv F
 -0.125000 -0.375000  0.125000    0.00195312 112 t-inv F
  0.000000 -0.250000  0.125000    0.00195312 113 t-inv F
  0.125000 -0.250000  0.125000    0.00195312 114 t-inv F
  0.250000 -0.250000  0.125000    0.00195312 115 t-inv F
  0.375000 -0.250000  0.125000    0.00195312 116 t-inv F
  0.500000 -0.250000  0.125000    0.00195312 117 t-inv F
 -0.375000 -0.250000  0.125000    0.00195312 118 t-inv F
 -0.250000 -0.250000  0.125000    0.00195312 119 t-inv F
 -0.125000 -0.250000  0.125000    0.00195312 120 t-inv F
  0.000000 -0.125000  0.125000    0.00195312 121 t-inv F
  0.125000 -0.125000  0.125000    0.00195312 122 t-inv F
  0.250000 -0.125000  0.125000    0.00195312 123 t-inv F
  0.375000 -0.125000  0.125000    0.00195312 124 t-inv F
  0.500000 -0.125000  0.125000    0.00195312 125 t-inv F
 -0.375000 -0.125000  0.125000    0.00195312 126 t-inv F
 -0.250000 -0.125000  0.125000    0.00195312 127 t-inv F
 -0.125000 -0.125000  0.125000    0.00195312 128 t-inv F
  0.000000  0.000000  0.250000    0.00195312 129 t-inv F
  0.125000 -0.000000  0.250000    0.00195312 130 t-inv F
  0.250000 -0.000000  0.250000    0.00195312 131 t-inv F
  0.375000 -0.000000  0.250000    0.00195312 132 t-inv F
  0.500000 -0.000000  0.250000    0.00195312 133 t-inv F
 -0.375000  0.000000  0.250000    0.00195312 134 t-inv F
 -0.250000  0.000000  0.250000    0.00195312 135 t-inv F
 -0.125000  0.000000  0.250000    0.00195312 136 t-inv F
  0.000000  0.125000  0.250000    0.00195312 137 t-inv F
  0.125000  0.125000  0.250000    0.00195312 138 t-inv F
  0.250000  0.125000  0.250000    0.00195312 139 t-inv F
  0.375000  0.125000  0.250000    0.00195312 140 t-inv F
  0.500000  0.125000  0.250000    0.00195312 141 t-inv F
 -0.375000  0.125000  0.250000    0.00195312 142 t-inv F
 -0.250000  0.125000  0.250000    0.00195312 143 t-inv F
 -0.125000  0.125000  0.250000    0.00195312 144 t-inv F
  0.000000  0.250000  0.250000    0.00195312 145 t-inv F
  0.125000  0.250000  0.250000    0.00195312 146 t-inv F
  0.250000  0.250000  0.250000    0.00195312 147 t-inv F
  0.375000  0.250000  0.250000    0.00195312 148 t-inv F
  0.500000  0.250000  0.250000    0.00195312 149 t-inv F
 -0.375000  0.250000  0.250000    0.00195312 150 t-inv F
 -0.250000  0.250000  0.250000    0.00195312 151 t-inv F
 -0.125000  0.250000  0.250000    0.00195312 152 t-inv F
  0.000000  0.375000  0.250000    0.00195312 153 t-inv F
  0.125000  0.375000  0.250000    0.00195312 154 t-inv F
  0.250000  0.375000  0.250000    0.00195312 155 t-inv F
  0.375000  0.375000  0.250000    0.00195312 156 t-inv F
  0.500000  0.375000  0.250000    0.00195312 157 t-inv F
 -0.375000  0.375000  0.250000    0.00195312 158 t-inv F
 -0.250000  0.375000  0.250000    0.00195312 159 t-inv F
 -0.125000  0.375000  0.250000    0.00195312 160 t-inv F
  0.000000  0.500000  0.250000    0.00195312 161 t-inv F
  0.125000  0.500000  0.250000    0.00195312 162 t-inv F
  0.250000  0.500000  0.250000    0.00195312 163 t-inv F
  0.375000  0.500000  0.250000    0.00195312 164 t-inv F
  0.500000  0.500000  0.250000    0.00195312 165 t-inv F
 -0.375000  0.500000  0.250000    0.00195312 166 t-inv F
 -0.250000  0.500000  0.250000    0.00195312 167 t-inv F
 -0.125000  0.500000  0.250000    0.00195312 168 t-inv F
  0.000000 -0.375000  0.250000    0.00195312 169 t-inv F
  0.125000 -0.375000  0.250000    0.00195312 170 t-inv F
  0.250000 -0.375000  0.250000    0.00195312 171 t-inv F
  0.375000 -0.375000  0.250000    0.00195312 172 t-inv F
  0.500000 -0.375000  0.250000    0.00195312 173 t-inv F
 -0.375000 -0.375000  0.250000    0.00195312 174 t-inv F
 -0.250000 -0.375000  0.250000    0.00195312 175 t-inv F
 -0.125000 -0.375000  0.250000    0.00195312 176 t-inv F
  0.000000 -0.250000  0.250000    0.00195312 177 t-inv F
  0.125000 -0.250000  0.250000    0.00195312 178 t-inv F
  0.250000 -0.250000  0.250000    0.00195312 179 t-inv F
  0.375000 -0.250000  0.250000    0.00195312 180 t-inv F
  0.500000 -0.250000  0.250000    0.00195312 181 t-inv F
 -0.375000 -0.250000  0.250000    0.00195312 182 t-inv F
 -0.250000 -0.250000  0.250000    0.00195312 183 t-inv F
 -0.125000 -0.250000  0.250000    0.00195312 184 t-inv F
  0.000000 -0.125000  0.250000    0.00195312 185 t-inv F
  0.125000 -0.125000  0.250000    0.00195312 186 t-inv F
  0.250000 -0.125000  0.250000    0.00195312 187 t-inv F
  0.375000 -0.125000  0.250000    0.00195312 188 t-inv F
  0.500000 -0.125000  0.250000    0.00195312 189 t-inv F
 -0.375000 -0.125000  0.250000    0.00195312 190 t-inv F
 -0.250000 -0.125000  0.250000    0.00195312 191 t-inv F
 -0.125000 -0.125000  0.250000    0.00195312 192 t-inv F
  0.000000  0.000000  0.375000    0.00195312 193 t-inv F
  0.125000 -0.000000  0.375000    0.00195312 194 t-inv F
  0.250000 -0.000000  0.375000    0.00195312 195 t-inv F
  0.375000 -0.000000  0.375000    0.00195312 196 t-inv F
  0.500000 -0.000000  0.375000    0.00195312 197 t-inv F
 -0.375000  0.000000  0.375000    0.00195312 198 t-inv F
 -0.250000  0.000000  0.375000    0.00195312 199 t-inv F
 -0.125000  0.000000  0.375000    0.00195312 200 t-inv F
  0.000000  0.125000  0.375000    0.00195312 201 t-inv F
  0.125000  0.125000  0.375000    0.00195312 202 t-inv F
  0.250000  0.125000  0.375000    0.00195312 203 t-inv F
  0.375000  0.125000  0.375000    0.00195312 204 t-inv F
  0.500000  0.125000  0.375000    0.00195312 205 t-inv F
 -0.375000  0.125000  0.375000    0.00195312 206 t-inv F
 -0.250000  0.125000  0.375000    0.00195312 207 t-inv F
 -0.125000  0.125000  0.375000    0.00195312 208 t-inv F
  0.000000  0.250000  0.375000    0.00195312 209 t-inv F
  0.125000  0.250000  0.375000    0.00195312 210 t-inv F
  0.250000  0.250000  0.375000    0.00195312 211 t-inv F
  0.375000  0.250000  0.375000    0.00195312 212 t-inv F
  0.500000  0.250000  0.375000    0.00195312 213 t-inv F
 -0.375000  0.250000  0.375000    0.00195312 214 t-inv F
 -0.250000  0.250000  0.375000    0.00195312 215 t-inv F
 -0.125000  0.250000  0.375000    0.00195312 216 t-inv F
  0.000000  0.375000  0.375000    0.00195312 217 t-inv F
  0.125000  0.375000  0.375000    0.00195312 218 t-inv F
  0.250000  0.375000  0.375000    0.00195312 219 t-inv F
  0.375000  0.375000  0.375000    0.00195312 220 t-inv F
  0.500000  0.375000  0.375000    0.00195312 221 t-inv F
 -0.375000  0.375000  0.375000    0.00195312 222 t-inv F
 -0.250000  0.375000  0.375000    0.00195312 223 t-inv F
 -0.125000  0.375000  0.375000    0.00195312 224 t-inv F
  0.000000  0.500000  0.375000    0.00195312 225 t-inv F
  0.125000  0.500000  0.375000    0.00195312 226 t-inv F
  0.250000  0.500000  0.375000    0.00195312 227 t-inv F
  0.375000  0.500000  0.375000    0.00195312 228 t-inv F
  0.500000  0.500000  0.375000    0.00195312 229 t-inv F
 -0.375000  0.500000  0.375000    0.00195312 230 t-inv F
 -0.250000  0.500000  0.375000    0.00195312 231 t-inv F
 -0.125000  0.500000  0.375000    0.00195312 232 t-inv F
  0.000000 -0.375000  0.375000    0.00195312 233 t-inv F
  0.125000 -0.375000  0.375000    0.00195312 234 t-inv F
  0.250000 -0.375000  0.375000    0.00195312 235 t-inv F
  0.375000 -0.375000  0.375000    0.00195312 236 t-inv F
  0.500000 -0.375000  0.375000    0.00195312 237 t-inv F
 -0.375000 -0.375000  0.375000    0.00195312 238 t-inv F
 -0.250000 -0.375000  0.375000    0.00195312 239 t-inv F
 -0.125000 -0.375000  0.375000    0.00195312 240 t-inv F
  0.000000 -0.250000  0.375000    0.00195312 241 t-inv F
  0.125000 -0.250000  0.375000    0.00195312 242 t-inv F
  0.250000 -0.250000  0.375000    0.00195312 243 t-inv F
  0.375000 -0.250000  0.375000    0.00195312 244 t-inv F
  0.500000 -0.250000  0.375000    0.00195312 245 t-inv F
 -0.375000 -0.250000  0.375000    0.00195312 246 t-inv F
 -0.250000 -0.250000  0.375000    0.00195312 247 t-inv F
 -0.125000 -0.250000  0.375000    0.00195312 248 t-inv F
  0.000000 -0.125000  0.375000    0.00195312 249 t-inv F
  0.125000 -0.125000  0.375000    0.00195312 250 t-inv F
  0.250000 -0.125000  0.375000    0.00195312 251 t-inv F
  0.375000 -0.125000  0.375000    0.00195312 252 t-inv F
  0.500000 -0.125000  0.375000    0.00195312 253 t-inv F
 -0.375000 -0.125000  0.375000    0.00195312 254 t-inv F
 -0.250000 -0.125000  0.375000    0.00195312 255 t-inv F
 -0.125000 -0.125000  0.375000    0.00195312 256 t-inv F
  0.000000  0.000000  0.500000    0.00195312 257 t-inv F
  0.125000 -0.000000  0.500000    0.00195312 258 t-inv F
  0.250000 -0.000000  0.500000    0.00195312 259 t-inv F
  0.375000 -0.000000  0.500000    0.00195312 260 t-inv F
  0.500000 -0.000000  0.500000    0.00195312 261 t-inv F
 -0.375000  0.000000  0.500000    0.00195312 262 t-inv F
 -0.250000  0.000000  0.500000    0.00195312 263 t-inv F
 -0.125000  0.000000  0.500000    0.00195312 264 t-inv F
  0.000000  0.125000  0.500000    0.00195312 265 t-inv F
  0.125000  0.125000  0.500000    0.00195312 266 t-inv F
  0.250000  0.125000  0.500000    0.00195312 267 t-inv F
  0.375000  0.125000  0.500000    0.00195312 268 t-inv F
  0.500000  0.125000  0.500000    0.00195312 269 t-inv F
 -0.375000  0.125000  0.500000    0.00195312 270 t-inv F
 -0.250000  0.125000  0.500000    0.00195312 271 t-inv F
 -0.125000  0.125000  0.500000    0.00195312 272 t-inv F
  0.000000  0.250000  0.500000    0.00195312 273 t-inv F
  0.125000  0.250000  0.500000    0.00195312 274 t-inv F
  0.250000  0.250000  0.500000    0.00195312 275 t-inv F
  0.375000  0.250000  0.500000    0.00195312 276 t-inv F
  0.500000  0.250000  0.500000    0.00195312 277 t-inv F
 -0.375000  0.250000  0.500000    0.00195312 278 t-inv F
 -0.250000  0.250000  0.500000    0.00195312 279 t-inv F
 -0.125000  0.250000  0.500000    0.00195312 280 t-inv F
  0.000000  0.375000  0.500000    0.00195312 281 t-inv F
  0.125000  0.375000  0.500000    0.00195312 282 t-inv F
  0.250000  0.375000  0.500000    0.00195312 283 t-inv F
  0.375000  0.375000  0.500000    0.00195312 284 t-inv F
  0.500000  0.375000  0.500000    0.00195312 285 t-inv F
 -0.375000  0.375000  0.500000    0.00195312 286 t-inv F
 -0.250000  0.375000  0.500000    0.00195312 287 t-inv F
 -0.125000  0.375000  0.500000    0.00195312 288 t-inv F
  0.000000  0.500000  0.500000    0.00195312 289 t-inv F
  0.125000  0.500000  0.500000    0.00195312 290 t-inv F
  0.250000  0.500000  0.500000    0.00195312 291 t-inv F
  0.375000  0.500000  0.500000    0.00195312 292 t-inv F
  0.500000  0.500000  0.500000    0.00195312 293 t-inv F
 -0.375000  0.500000  0.500000    0.00195312 294 t-inv F
 -0.250000  0.500000  0.500000    0.00195312 295 t-inv F
 -0.125000  0.500000  0.500000    0.00195312 296 t-inv F
  0.000000 -0.375000  0.500000    0.00195312 297 t-inv F
  0.125000 -0.375000  0.500000    0.00195312 298 t-inv F
  0.250000 -0.375000  0.500000    0.00195312 299 t-inv F
  0.375000 -0.375000  0.500000    0.00195312 300 t-inv F
  0.500000 -0.375000  0.500000    0.00195312 301 t-inv F
 -0.375000 -0.375000  0.500000    0.00195312 302 t-inv F
 -0.250000 -0.375000  0.500000    0.00195312 303 t-inv F
 -0.125000 -0.375000  0.500000    0.00195312 304 t-inv F
  0.000000 -0.250000  0.500000    0.00195312 305 t-inv F
  0.125000 -0.250000  0.500000    0.00195312 306 t-inv F
  0.250000 -0.250000  0.500000    0.00195312 307 t-inv F
  0.375000 -0.250000  0.500000    0.00195312 308 t-inv F
  0.500000 -0.250000  0.500000    0.00195312 309 t-inv F
 -0.375000 -0.250000  0.500000    0.00195312 310 t-inv F
 -0.250000 -0.250000  0.500000    0.00195312 311 t-inv F
 -0.125000 -0.250000  0.500000    0.00195312 312 t-inv F
  0.000000 -0.125000  0.500000    0.00195312 313 t-inv F
  0.125000 -0.125000  0.500000    0.00195312 314 t-inv F
  0.250000 -0.125000  0.500000    0.00195312 315 t-inv F
  0.375000 -0.125000  0.500000    0.00195312 316 t-inv F
  0.500000 -0.125000  0.500000    0.00195312 317 t-inv F
 -0.375000 -0.125000  0.500000    0.00195312 318 t-inv F
 -0.250000 -0.125000  0.500000    0.00195312 319 t-inv F
 -0.125000 -0.125000  0.500000    0.00195312 320 t-inv F
  0.000000  0.000000 -0.375000    0.00195312 321 t-inv F
  0.125000 -0.000000 -0.375000    0.00195312 322 t-inv F
  0.250000 -0.000000 -0.375000    0.00195312 323 t-inv F
  0.375000 -0.000000 -0.375000    0.00195312 324 t-inv F
  0.500000 -0.000000 -0.375000    0.00195312 325 t-inv F
 -0.375000  0.000000 -0.375000    0.00195312 326 t-inv F
 -0.250000  0.000000 -0.375000    0.00195312 327 t-inv F
 -0.125000  0.000000 -0.375000    0.00195312 328 t-inv F
  0.000000  0.125000 -0.375000    0.00195312 329 t-inv F
  0.125000  0.125000 -0.375000    0.00195312 330 t-inv F
  0.250000  0.125000 -0.375000    0.00195312 331 t-inv F
  0.375000  0.125000 -0.375000    0.00195312 332 t-inv F
  0.500000  0.125000 -0.375000    0.00195312 333 t-inv F
 -0.375000  0.125000 -0.375000    0.00195312 334 t-inv F
 -0.250000  0.125000 -0.375000    0.00195312 335 t-inv F
 -0.125000  0.125000 -0.375000    0.00195312 336 t-inv F
  0.000000  0.250000 -0.375000    0.00195312 337 t-inv F
  0.125000  0.250000 -0.375000    0.00195312 338 t-inv F
  0.250000  0.250000 -0.375000    0.00195312 339 t-inv F
  0.375000  0.250000 -0.375000    0.00195312 340 t-inv F
  0.500000  0.250000 -0.375000    0.00195312 341 t-inv F
 -0.375000  0.250000 -0.375000    0.00195312 342 t-inv F
 -0.250000  0.250000 -0.375000    0.00195312 343 t-inv F
 -0.125000  0.250000 -0.375000    0.00195312 344 t-inv F
  0.000000  0.375000 -0.375000    0.00195312 345 t-inv F
  0.125000  0.375000 -0.375000    0.00195312 346 t-inv F
  0.250000  0.375000 -0.375000    0.00195312 347 t-inv F
  0.375000  0.375000 -0.375000    0.00195312 348 t-inv F
  0.500000  0.375000 -0.375000    0.00195312 349 t-inv F
 -0.375000  0.375000 -0.375000    0.00195312 350 t-inv F
 -0.250000  0.375000 -0.375000    0.00195312 351 t-inv F
 -0.125000  0.375000 -0.375000    0.00195312 352 t-inv F
  0.000000  0.500000 -0.375000    0.00195312 353 t-inv F
  0.125000  0.500000 -0.375000    0.00195312 354 t-inv F
  0.250000  0.500000 -0.375000    0.00195312 355 t-inv F
  0.375000  0.500000 -0.375000    0.00195312 356 t-inv F
  0.500000  0.500000 -0.375000    0.00195312 357 t-inv F
 -0.375000  0.500000 -0.375000    0.00195312 358 t-inv F
 -0.250000  0.500000 -0.375000    0.00195312 359 t-inv F
 -0.125000  0.500000 -0.375000    0.00195312 360 t-inv F
  0.000000 -0.375000 -0.375000    0.00195312 361 t-inv F
  0.125000 -0.375000 -0.375000    0.00195312 362 t-inv F
  0.250000 -0.375000 -0.375000    0.00195312 363 t-inv F
  0.375000 -0.375000 -0.375000    0.00195312 364 t-inv F
  0.500000 -0.375000 -0.375000    0.00195312 365 t-inv F
 -0.375000 -0.375000 -0.375000    0.00195312 366 t-inv F
 -0.250000 -0.375000 -0.375000    0.00195312 367 t-inv F
 -0.125000 -0.375000 -0.375000    0.00195312 368 t-inv F
  0.000000 -0.250000 -0.375000    0.00195312 369 t-inv F
  0.125000 -0.250000 -0.375000    0.00195312 370 t-inv F
  0.250000 -0.250000 -0.375000    0.00195312 371 t-inv F
  0.375000 -0.250000 -0.375000    0.00195312 372 t-inv F
  0.500000 -0.250000 -0.375000    0.00195312 373 t-inv F
 -0.375000 -0.250000 -0.375000    0.00195312 374 t-inv F
 -0.250000 -0.250000 -0.375000    0.00195312 375 t-inv F
 -0.125000 -0.250000 -0.375000    0.00195312 376 t-inv F
  0.000000 -0.125000 -0.375000    0.00195312 377 t-inv F
  0.125000 -0.125000 -0.375000    0.00195312 378 t-inv F
  0.250000 -0.125000 -0.375000    0.00195312 379 t-inv F
  0.375000 -0.125000 -0.375000    0.00195312 380 t-inv F
  0.500000 -0.125000 -0.375000    0.00195312 381 t-inv F
 -0.375000 -0.125000 -0.375000    0.00195312 382 t-inv F
 -0.250000 -0.125000 -0.375000    0.00195312 383 t-inv F
 -0.125000 -0.125000 -0.375000    0.00195312 384 t-inv F
  0.000000  0.000000 -0.250000    0.00195312 385 t-inv F
[...]
  0.000   0.133   0.000   0.000   0.000   0.000   0.000   0.000   0.000   0.000   0.000   0.000   0.000   0.000   0.000   0.000
  0.000   0.000   0.133   0.000   0.000   0.000   0.000   0.000   0.000   0.000   0.000   0.000   0.000   0.000   0.000   0.000
  0.000   0.000   0.000   0.133   0.000   0.000   0.000   0.000   0.000   0.000   0.000   0.000   0.000   0.000   0.000   0.000
  0.000   0.000   0.000   0.000   0.133   0.000   0.000   0.000   0.000   0.000   0.000   0.000   0.000   0.000   0.000   0.000
  0.000   0.000   0.000   0.000   0.000   0.000   0.000   0.000   0.000   0.000   0.000   0.000   0.000   0.000   0.000   0.000
  0.000   0.000   0.000   0.000   0.000   0.000   0.000   0.000   0.000   0.000   0.000   0.000   0.000   0.000   0.000   0.000
  0.000   0.000   0.000   0.000   0.000   0.000   0.000   0.000   0.000   0.000   0.000   0.000   0.000   0.000   0.000   0.000
  0.000   0.000   0.000   0.000   0.000   0.000   0.000   0.000   0.000   0.000   0.000   0.000   0.000   0.000   0.000   0.000
  0.000   0.000   0.000   0.000   0.000   0.000   0.000   0.000   0.000   0.000   0.000   0.000   0.000   0.000   0.000   0.000
  0.000   0.000   0.000   0.000   0.000   0.000   0.000   0.000   0.000   0.000   0.133   0.000   0.000   0.000   0.000   0.000
  0.000   0.000   0.000   0.000   0.000   0.000   0.000   0.000   0.000   0.000   0.000   0.000   0.000   0.000   0.000   0.000
  0.000   0.000   0.000   0.000   0.000   0.000   0.000   0.000   0.000   0.000   0.000   0.000   0.067   0.000   0.000   0.000
  0.000   0.000   0.000   0.000   0.000   0.000   0.000   0.000   0.000   0.000   0.000   0.000   0.000   0.067   0.000   0.000
  0.000   0.000   0.000   0.000   0.000   0.000   0.000   0.000   0.000   0.000   0.000   0.000   0.000   0.000   0.067   0.000
  0.000   0.000   0.000   0.000   0.000   0.000   0.000   0.000   0.000   0.000   0.000   0.000   0.000   0.000   0.000   0.000
  0.000   0.000   0.000   0.000   0.000   0.000   0.000   0.000   0.000   0.000   0.000   0.000   0.000   0.000   0.000   0.000
  0.000   0.000   0.000   0.000   0.000   0.000   0.000   0.000   0.000   0.000   0.000   0.000   0.000   0.000   0.000   0.000
 total augmentation occupancy for first ion, spin component:           4
  0.133   0.000   0.000   0.000   0.000   0.000   0.000   0.000   0.000   0.000   0.000   0.000   0.000   0.000   0.000   0.000
  0.000   0.133   0.000   0.000   0.000   0.000   0.000   0.000   0.000   0.000   0.000   0.000   0.000   0.000   0.000   0.000
  0.000   0.000   0.133   0.000   0.000   0.000   0.000   0.000   0.000   0.000   0.000   0.000   0.000   0.000   0.000   0.000
  0.000   0.000   0.000   0.133   0.000   0.000   0.000   0.000   0.000   0.000   0.000   0.000   0.000   0.000   0.000   0.000
  0.000   0.000   0.000   0.000   0.133   0.000   0.000   0.000   0.000   0.000   0.000   0.000   0.000   0.000   0.000   0.000
  0.000   0.000   0.000   0.000   0.000   0.000   0.000   0.000   0.000   0.000   0.000   0.000   0.000   0.000   0.000   0.000
  0.000   0.000   0.000   0.000   0.000   0.000   0.000   0.000   0.000   0.000   0.000   0.000   0.000   0.000   0.000   0.000
  0.000   0.000   0.000   0.000   0.000   0.000   0.000   0.000   0.000   0.000   0.000   0.000   0.000   0.000   0.000   0.000
  0.000   0.000   0.000   0.000   0.000   0.000   0.000   0.000   0.000   0.000   0.000   0.000   0.000   0.000   0.000   0.000
  0.000   0.000   0.000   0.000   0.000   0.000   0.000   0.000   0.000   0.000   0.000   0.000   0.000   0.000   0.000   0.000
  0.000   0.000   0.000   0.000   0.000   0.000   0.000   0.000   0.000   0.000   0.133   0.000   0.000   0.000   0.000   0.000
  0.000   0.000   0.000   0.000   0.000   0.000   0.000   0.000   0.000   0.000   0.000   0.000   0.000   0.000   0.000   0.000
  0.000   0.000   0.000   0.000   0.000   0.000   0.000   0.000   0.000   0.000   0.000   0.000   0.067   0.000   0.000   0.000
  0.000   0.000   0.000   0.000   0.000   0.000   0.000   0.000   0.000   0.000   0.000   0.000   0.000   0.067   0.000   0.000
  0.000   0.000   0.000   0.000   0.000   0.000   0.000   0.000   0.000   0.000   0.000   0.000   0.000   0.000   0.067   0.000
  0.000   0.000   0.000   0.000   0.000   0.000   0.000   0.000   0.000   0.000   0.000   0.000   0.000   0.000   0.000   0.000
  0.000   0.000   0.000   0.000   0.000   0.000   0.000   0.000   0.000   0.000   0.000   0.000   0.000   0.000   0.000   0.000
  0.000   0.000   0.000   0.000   0.000   0.000   0.000   0.000   0.000   0.000   0.000   0.000   0.000   0.000   0.000   0.000


------------------------ aborting loop because EDIFF is reached ----------------------------------------


 


 total charge     
 
# of ion     s       p       d       tot
----------------------------------------
  1        1.614   1.107   9.959  12.679
  2        1.614   1.107   9.959  12.679
  3        1.476   2.327   0.024   3.828
  4        1.497   2.257   0.026   3.780
  5        1.497   2.257   0.026   3.780
------------------------------------------------
tot        7.697   9.055  19.993  36.745
 


 magnetization (x)
 
# of ion     s       p       d       tot
----------------------------------------
  1        0.000   0.000   0.000   0.000
  2        0.000   0.000   0.000   0.000
  3       -0.000  -0.000   0.000  -0.000
  4       -0.000  -0.000   0.000  -0.000
  5       -0.000  -0.000   0.000  -0.000
------------------------------------------------
tot       -0.000  -0.000   0.000  -0.000
 


 magnetization (y)
 
# of ion     s       p       d       tot
----------------------------------------
  1        0.000   0.000   0.000   0.000
  2        0.000   0.000   0.000   0.000
  3       -0.000  -0.000   0.000  -0.000
  4       -0.000  -0.000  -0.000  -0.000
  5       -0.000  -0.000  -0.000  -0.000
------------------------------------------------
tot       -0.000  -0.000   0.000  -0.000
 


 magnetization (z)
 
# of ion     s       p       d       tot
----------------------------------------
  1        0.000   0.000   0.000   0.000
  2        0.000   0.000   0.000   0.000
  3       -0.000  -0.000   0.000  -0.000
  4       -0.000  -0.000   0.000  -0.000
  5       -0.000  -0.000   0.000  -0.000
------------------------------------------------
tot       -0.000  -0.000   0.000  -0.000
 
    CHARGE:  cpu time   35.6120: real time   35.6111
    FORLOC:  cpu time    0.0350: real time    0.0350
    FORNL :  cpu time  116.2248: real time  116.2237
    STRESS:  cpu time  101.3982: real time  101.3828
    FORCOR:  cpu time    0.6520: real time    0.6519
    FORHAR:  cpu time    0.0832: real time    0.0832
    OFIELD:  cpu time    0.0032: real time    0.0032

  FORCE on cell =-STRESS in cart. coord.  units (eV):
  Direction    XX          YY          ZZ          XY          YZ          ZX
  --------------------------------------------------------------------------------------
  Alpha Z   142.06524   142.06524   142.06524
  Ewald    -988.11757  -988.11804 -1419.44696     0.00041    -0.00011    -0.00019
  Hartree   547.81492   547.81475   194.13117     0.00015    -0.00004    -0.00006
  E(xc)    -212.86855  -212.86856  -212.75458     0.00001     0.00000     0.00000
  Local    -570.10319  -570.10288   215.47046    -0.00027     0.00023     0.00040
  n-local   337.14164   337.14162   335.78989     0.00002    -0.00001    -0.00002
  augment   250.27232   250.27101   250.82736     0.00114    -0.00006    -0.00010
  Kinetic   497.62423   497.62426   497.79587    -0.00002    -0.00001    -0.00001
  Fock        0.00000     0.00000     0.00000     0.00000     0.00000     0.00000
  -------------------------------------------------------------------------------------
  Total       3.82905     3.82739     3.87844     0.00144     0.00000     0.00001
  in kB      45.06978    45.05024    45.65113     0.01691     0.00004     0.00007
  external pressure =       45.26 kB  Pullay stress =        0.00 kB


 VOLUME and BASIS-vectors are now :
 -----------------------------------------------------------------------------
  energy-cutoff  :      300.00
  volume of cell :      136.12
      direct lattice vectors                 reciprocal lattice vectors
     4.108000000  0.000000000  0.000000000     0.243427459 -0.140542909 -0.035789335
     2.054000000  3.557632359  0.000000000     0.000000000  0.281085818 -0.035789335
     2.054000000  1.185877453  9.313761483     0.000000000  0.000000000  0.107368006

  length of vectors
     4.108000000  4.108000000  9.611002773     0.283355101  0.283355101  0.107368006


 FORCES acting on ions
    electron-ion (+dipol)            ewald-force                    non-local-force                 convergence-correction
 -----------------------------------------------------------------------------------------------
   -.878E-03 -.503E-03 -.171E+03   0.225E-03 0.130E-03 0.166E+03   -.124E-02 -.716E-03 0.560E+01   0.867E-03 0.496E-03 0.750E-02
   -.625E-03 -.364E-03 0.171E+03   -.141E-03 -.815E-04 -.166E+03   0.971E-03 0.559E-03 -.560E+01   0.855E-03 0.498E-03 0.120E-02
   0.195E-03 0.113E-03 0.382E-02   -.861E-04 -.497E-04 -.779E-03   -.274E-04 -.159E-04 -.250E-03   -.868E-04 -.501E-04 -.276E-02
   -.406E-03 -.235E-03 0.155E+03   0.151E-03 0.872E-04 -.158E+03   0.111E-03 0.644E-04 0.249E+01   0.138E-03 0.802E-04 0.591E-03
   -.125E-03 -.710E-04 -.155E+03   -.149E-03 -.858E-04 0.158E+03   0.142E-03 0.814E-04 -.249E+01   0.137E-03 0.785E-04 0.295E-02
 -----------------------------------------------------------------------------------------------
   -.184E-02 -.106E-02 -.892E-02   -.436E-13 0.323E-14 -.853E-13   -.465E-04 -.267E-04 -.413E-03   0.191E-02 0.110E-02 0.948E-02
 
 
 POSITION                                       TOTAL-FORCE (eV/Angst)
 -----------------------------------------------------------------------------------
      5.13500      2.96469      6.55287        -0.001034     -0.000597     -0.056957
      3.08100      1.77882      2.76088         0.001054      0.000609      0.057018
      1.02700      0.59294      4.65688        -0.000010     -0.000006     -0.000000
      5.13500      2.96469      1.19178        -0.000011     -0.000006     -0.252259
      3.08100      1.77882      8.12197         0.000000      0.000000      0.252199
 -----------------------------------------------------------------------------------
    total drift:                                0.000025      0.000015      0.000147


--------------------------------------------------------------------------------------------------------



  FREE ENERGIE OF THE ION-ELECTRON SYSTEM (eV)
  ---------------------------------------------------
  free  energy   TOTEN  =       -21.44273483 eV

  energy  without entropy=      -21.44043796  energy(sigma->0) =      -21.44158640
 


--------------------------------------------------------------------------------------------------------


    POTLOK:  cpu time    0.7335: real time    0.7335


--------------------------------------------------------------------------------------------------------


     LOOP+:  cpu time67614.0824: real time 6407.1106
    4ORBIT:  cpu time    0.0000: real time    0.0000

 Spin-Orbit-Coupling matrix elements

 Ion:    1  E_soc:     -1.4136283
 l=   1
     0.0000000    -0.1715239    -0.1701047
    -0.1715239     0.0000000    -0.1715238
    -0.1701047    -0.1715238     0.0000000
 l=   2
     0.0000000    -0.0128935     0.0000000    -0.0128935    -0.0518464
    -0.0128935     0.0000000    -0.0387254    -0.0127906    -0.0128935
     0.0000000    -0.0387254     0.0000000    -0.0387254     0.0000000
    -0.0128935    -0.0127906    -0.0387254     0.0000000    -0.0128935
    -0.0518464    -0.0128935     0.0000000    -0.0128935     0.0000000
 l=   3
     0.0000000     0.0000000     0.0000000     0.0000000     0.0000000     0.0000000     0.0000000
     0.0000000     0.0000000     0.0000000     0.0000000     0.0000000     0.0000000     0.0000000
     0.0000000     0.0000000     0.0000000     0.0000000     0.0000000     0.0000000     0.0000000
     0.0000000     0.0000000     0.0000000     0.0000000     0.0000000     0.0000000     0.0000000
     0.0000000     0.0000000     0.0000000     0.0000000     0.0000000     0.0000000     0.0000000
     0.0000000     0.0000000     0.0000000     0.0000000     0.0000000     0.0000000     0.0000000
     0.0000000     0.0000000     0.0000000     0.0000000     0.0000000     0.0000000     0.0000000

 Ion:    2  E_soc:     -1.4135997
 l=   1
     0.0000000    -0.1715190    -0.1700999
    -0.1715190     0.0000000    -0.1715191
    -0.1700999    -0.1715191     0.0000000
 l=   2
     0.0000000    -0.0128935     0.0000000    -0.0128935    -0.0518464
    -0.0128935     0.0000000    -0.0387255    -0.0127906    -0.0128935
     0.0000000    -0.0387255     0.0000000    -0.0387255     0.0000000
    -0.0128935    -0.0127906    -0.0387255     0.0000000    -0.0128935
    -0.0518464    -0.0128935     0.0000000    -0.0128935     0.0000000
 l=   3
     0.0000000     0.0000000     0.0000000     0.0000000     0.0000000     0.0000000     0.0000000
     0.0000000     0.0000000     0.0000000     0.0000000     0.0000000     0.0000000     0.0000000
     0.0000000     0.0000000     0.0000000     0.0000000     0.0000000     0.0000000     0.0000000
     0.0000000     0.0000000     0.0000000     0.0000000     0.0000000     0.0000000     0.0000000
     0.0000000     0.0000000     0.0000000     0.0000000     0.0000000     0.0000000     0.0000000
     0.0000000     0.0000000     0.0000000     0.0000000     0.0000000     0.0000000     0.0000000
     0.0000000     0.0000000     0.0000000     0.0000000     0.0000000     0.0000000     0.0000000

 Ion:    3  E_soc:     -0.0407528
 l=   1
     0.0000000    -0.0067455    -0.0069352
    -0.0067455     0.0000000    -0.0067455
    -0.0069352    -0.0067455     0.0000000
 l=   2
     0.0000000     0.0000039     0.0000000     0.0000039     0.0000125
     0.0000039     0.0000000     0.0000097     0.0000021     0.0000039
     0.0000000     0.0000097     0.0000000     0.0000097     0.0000000
     0.0000039     0.0000021     0.0000097     0.0000000     0.0000039
     0.0000125     0.0000039     0.0000000     0.0000039     0.0000000
 l=   3
     0.0000000     0.0000000     0.0000000     0.0000000     0.0000000     0.0000000     0.0000000
     0.0000000     0.0000000     0.0000000     0.0000000     0.0000000     0.0000000     0.0000000
     0.0000000     0.0000000     0.0000000     0.0000000     0.0000000     0.0000000     0.0000000
     0.0000000     0.0000000     0.0000000     0.0000000     0.0000000     0.0000000     0.0000000
     0.0000000     0.0000000     0.0000000     0.0000000     0.0000000     0.0000000     0.0000000
     0.0000000     0.0000000     0.0000000     0.0000000     0.0000000     0.0000000     0.0000000
     0.0000000     0.0000000     0.0000000     0.0000000     0.0000000     0.0000000     0.0000000

 Ion:    4  E_soc:     -0.0526037
 l=   1
     0.0000000    -0.0089703    -0.0084021
    -0.0089703     0.0000000    -0.0089704
    -0.0084021    -0.0089704     0.0000000
 l=   2
     0.0000000     0.0000029     0.0000000     0.0000029     0.0000118
     0.0000029     0.0000000     0.0000070     0.0000035     0.0000029
     0.0000000     0.0000070     0.0000000     0.0000070     0.0000000
     0.0000029     0.0000035     0.0000070     0.0000000     0.0000029
     0.0000118     0.0000029     0.0000000     0.0000029     0.0000000
 l=   3
     0.0000000     0.0000000     0.0000000     0.0000000     0.0000000     0.0000000     0.0000000
     0.0000000     0.0000000     0.0000000     0.0000000     0.0000000     0.0000000     0.0000000
     0.0000000     0.0000000     0.0000000     0.0000000     0.0000000     0.0000000     0.0000000
     0.0000000     0.0000000     0.0000000     0.0000000     0.0000000     0.0000000     0.0000000
     0.0000000     0.0000000     0.0000000     0.0000000     0.0000000     0.0000000     0.0000000
     0.0000000     0.0000000     0.0000000     0.0000000     0.0000000     0.0000000     0.0000000
     0.0000000     0.0000000     0.0000000     0.0000000     0.0000000     0.0000000     0.0000000

 Ion:    5  E_soc:     -0.0526034
 l=   1
     0.0000000    -0.0089703    -0.0084021
    -0.0089703     0.0000000    -0.0089703
    -0.0084021    -0.0089703     0.0000000
 l=   2
     0.0000000     0.0000029     0.0000000     0.0000029     0.0000118
     0.0000029     0.0000000     0.0000070     0.0000035     0.0000029
     0.0000000     0.0000070     0.0000000     0.0000070     0.0000000
     0.0000029     0.0000035     0.0000070     0.0000000     0.0000029
     0.0000118     0.0000029     0.0000000     0.0000029     0.0000000
 l=   3
     0.0000000     0.0000000     0.0000000     0.0000000     0.0000000     0.0000000     0.0000000
     0.0000000     0.0000000     0.0000000     0.0000000     0.0000000     0.0000000     0.0000000
     0.0000000     0.0000000     0.0000000     0.0000000     0.0000000     0.0000000     0.0000000
     0.0000000     0.0000000     0.0000000     0.0000000     0.0000000     0.0000000     0.0000000
     0.0000000     0.0000000     0.0000000     0.0000000     0.0000000     0.0000000     0.0000000
     0.0000000     0.0000000     0.0000000     0.0000000     0.0000000     0.0000000     0.0000000
     0.0000000     0.0000000     0.0000000     0.0000000     0.0000000     0.0000000     0.0000000
 


 total charge     
 
# of ion     s       p       d       tot
----------------------------------------
  1        1.614   1.107   9.959  12.679
  2        1.614   1.107   9.959  12.679
  3        1.476   2.327   0.024   3.828
  4        1.497   2.257   0.026   3.780
  5        1.497   2.257   0.026   3.780
------------------------------------------------
tot        7.697   9.055  19.993  36.745
 


 magnetization (x)
 
# of ion     s       p       d       tot
----------------------------------------
  1        0.000   0.000   0.000   0.000
  2        0.000   0.000   0.000   0.000
  3       -0.000  -0.000   0.000  -0.000
  4       -0.000  -0.000   0.000  -0.000
  5       -0.000  -0.000   0.000  -0.000
------------------------------------------------
tot       -0.000  -0.000   0.000  -0.000
 


 magnetization (y)
 
# of ion     s       p       d       tot
----------------------------------------
  1        0.000   0.000   0.000   0.000
  2        0.000   0.000   0.000   0.000
  3       -0.000  -0.000   0.000  -0.000
  4       -0.000  -0.000  -0.000  -0.000
  5       -0.000  -0.000  -0.000  -0.000
------------------------------------------------
tot       -0.000  -0.000   0.000  -0.000
 


 magnetization (z)
 
# of ion     s       p       d       tot
----------------------------------------
  1        0.000   0.000   0.000   0.000
  2        0.000   0.000   0.000   0.000
  3       -0.000  -0.000   0.000  -0.000
  4       -0.000  -0.000   0.000  -0.000
  5       -0.000  -0.000   0.000  -0.000
------------------------------------------------
tot       -0.000  -0.000   0.000  -0.000
 

 total amount of memory used by VASP on root node  2574517. kBytes
========================================================================

   base      :      30000. kBytes
   nonl-proj :     239303. kBytes
   fftplans  :      16912. kBytes
   grid      :      63700. kBytes
   one-center:        311. kBytes
   wavefun   :    2224291. kBytes
 
  
  
 General timing and accounting informations for this job:
 ========================================================
  
                  Total CPU time used (sec):    67719.211
                            User time (sec):    62960.219
                          System time (sec):     4758.993
                         Elapsed time (sec):     6475.705
  
                   Maximum memory used (kb):     2890228.
                   Average memory used (kb):           0.
  
                          Minor page faults:     22756830
                          Major page faults:            0
                 Voluntary context switches:        58758
